BEGIN_CFG
 Size
    1
 Supercell
    1.9823191101784348    1.9823191101784348    1.9823191101784348
    -1.9823225436574508    1.9823225436574508    1.9823225436574508
    -1.9823225436574508    -1.9823225436574508    1.9823225436574508
 AtomData:  id type    cartes_x    cartes_y    cartes_z    fx    fy    fz
    1    0    0.0    0.0    0.0    0.0    0.0    0.0
 Energy
    0.0648883223636858
 PlusStress:  xx          yy          zz          yz          xz          xy
     2.8022022344070985    2.8022594519842956    2.8021736256185004    -2.8608788598220495e-05    2.8608788598220495e-05    2.8608788598220495e-05
 Feature EFS_by Qe
END_CFG

BEGIN_CFG
 Size
    1
 Supercell
    2.0483973813325136    2.0483973813325136    2.0483973813325136
    -2.048400929262506    2.048400929262506    2.048400929262506
    -2.048400929262506    -2.048400929262506    2.048400929262506
 AtomData:  id type    cartes_x    cartes_y    cartes_z    fx    fy    fz
    1    0    0.0    0.0    0.0    0.0    0.0    0.0
 Energy
    -0.18972589552777208
 PlusStress:  xx          yy          zz          yz          xz          xy
     2.353855075967846    2.353886642102245    2.353855075967846    -3.15661343985818e-05    3.15661343985818e-05    -0.0
 Feature EFS_by Qe
END_CFG

BEGIN_CFG
 Size
    1
 Supercell
    2.114475652486593    2.114475652486593    2.114475652486593
    -2.1144793148675616    2.1144793148675616    2.1144793148675616
    -2.1144793148675616    -2.1144793148675616    2.1144793148675616
 AtomData:  id type    cartes_x    cartes_y    cartes_z    fx    fy    fz
    1    0    0.0    0.0    0.0    0.0    0.0    0.0
 Energy
    -0.3951077771976088
 PlusStress:  xx          yy          zz          yz          xz          xy
     1.9396298570749564    1.9396992982126149    1.939595136506127    -0.0    0.0    -3.472056882920944e-05
 Feature EFS_by Qe
END_CFG

BEGIN_CFG
 Size
    1
 Supercell
    2.1805542291611344    2.1805542291611344    2.1805542291611344
    -2.1805580059936087    2.1805580059936087    2.1805580059936087
    -2.1805580059936087    -2.1805580059936087    2.1805580059936087
 AtomData:  id type    cartes_x    cartes_y    cartes_z    fx    fy    fz
    1    0    0.0    0.0    0.0    0.0    0.0    0.0
 Energy
    -0.5575562142830677
 PlusStress:  xx          yy          zz          yz          xz          xy
     1.5613313284252743    1.5613313284252743    1.5612932499595906    -7.615693136723042e-05    3.807846568361521e-05    -7.615693136723042e-05
 Feature EFS_by Qe
END_CFG

BEGIN_CFG
 Size
    1
 Supercell
    2.2466325003152137    2.2466325003152137    2.2466325003152137
    -2.246636391598664    2.246636391598664    2.246636391598664
    -2.246636391598664    -2.246636391598664    2.246636391598664
 AtomData:  id type    cartes_x    cartes_y    cartes_z    fx    fy    fz
    1    0    0.0    0.0    0.0    0.0    0.0    0.0
 Energy
    -0.6830385276819015
 PlusStress:  xx          yy          zz          yz          xz          xy
     1.2248966144778197    1.2249382606295427    1.2248966144778197    4.164615172303209e-05    4.164615172303209e-05    -8.329230344606418e-05
 Feature EFS_by Qe
END_CFG

BEGIN_CFG
 Size
    1
 Supercell
    2.3127055776214296    2.3127055776214296    2.3127055776214296
    -2.3127095833468605    2.3127095833468605    2.3127095833468605
    -2.3127095833468605    -2.3127095833468605    2.3127095833468605
 AtomData:  id type    cartes_x    cartes_y    cartes_z    fx    fy    fz
    1    0    0.0    0.0    0.0    0.0    0.0    0.0
 Energy
    -0.7775159157308735
 PlusStress:  xx          yy          zz          yz          xz          xy
     0.9328079009158396    0.9328079009158396    0.9327624712221312    -0.0    4.542969370846149e-05    -9.085938741692298e-05
 Feature EFS_by Qe
END_CFG

BEGIN_CFG
 Size
    1
 Supercell
    2.378783848775509    2.378783848775509    2.378783848775509
    -2.3787879689519165    2.3787879689519165    2.3787879689519165
    -2.3787879689519165    -2.3787879689519165    2.3787879689519165
 AtomData:  id type    cartes_x    cartes_y    cartes_z    fx    fy    fz
    1    0    0.0    0.0    0.0    0.0    0.0    0.0
 Energy
    -0.8463746001793879
 PlusStress:  xx          yy          zz          yz          xz          xy
     0.6820690968856151    0.6821185329294569    0.6820690968856151    0.0    4.943604384182178e-05    -4.943604384182178e-05
 Feature EFS_by Qe
END_CFG

BEGIN_CFG
 Size
    1
 Supercell
    2.444862119929588    2.444862119929588    2.444862119929588
    -2.4448663545569715    2.4448663545569715    2.4448663545569715
    -2.4448663545569715    -2.4448663545569715    2.4448663545569715
 AtomData:  id type    cartes_x    cartes_y    cartes_z    fx    fy    fz
    1    0    0.0    0.0    0.0    0.0    0.0    0.0
 Energy
    -0.8942281354709394
 PlusStress:  xx          yy          zz          yz          xz          xy
     0.46715474343059926    0.46720841470167357    0.46715474343059926    -0.0    5.3671271074287605e-05    -5.3671271074287605e-05
 Feature EFS_by Qe
END_CFG

BEGIN_CFG
 Size
    1
 Supercell
    2.5109403910836674    2.5109403910836674    2.5109403910836674
    -2.510944740162027    2.510944740162027    2.510944740162027
    -2.510944740162027    -2.510944740162027    2.510944740162027
 AtomData:  id type    cartes_x    cartes_y    cartes_z    fx    fy    fz
    1    0    0.0    0.0    0.0    0.0    0.0    0.0
 Energy
    -0.9248840747952727
 PlusStress:  xx          yy          zz          yz          xz          xy
     0.28361537451883884    0.28361537451883884    0.28361537451883884    -0.0    0.0    -5.81417331936939e-05
 Feature EFS_by Qe
END_CFG

BEGIN_CFG
 Size
    1
 Supercell
    2.5770186622377467    2.5770186622377467    2.5770186622377467
    -2.577023125767082    2.577023125767082    2.577023125767082
    -2.577023125767082    -2.577023125767082    2.577023125767082
 AtomData:  id type    cartes_x    cartes_y    cartes_z    fx    fy    fz
    1    0    0.0    0.0    0.0    0.0    0.0    0.0
 Energy
    -0.9414934966537203
 PlusStress:  xx          yy          zz          yz          xz          xy
     0.12665038279556934    0.12665038279556934    0.12665038279556934    0.0    0.0    -6.285378798787561e-05
 Feature EFS_by Qe
END_CFG

BEGIN_CFG
 Size
    1
 Supercell
    2.643097238912288    2.643097238912288    2.643097238912288
    -2.6431018168931293    2.6431018168931293    2.6431018168931293
    -2.6431018168931293    -2.6431018168931293    2.6431018168931293
 AtomData:  id type    cartes_x    cartes_y    cartes_z    fx    fy    fz
    1    0    0.0    0.0    0.0    0.0    0.0    0.0
 Energy
    -0.946689646871846
 PlusStress:  xx          yy          zz          yz          xz          xy
     -0.007934216561017771    -0.007866402744256935    -0.007934216561017771    0.0    -0.0    -6.781381676083566e-05
 Feature EFS_by Qe
END_CFG

BEGIN_CFG
 Size
    1
 Supercell
    2.709170010698042    2.709170010698042    2.709170010698042
    -2.709170010698042    2.709174703120334    2.709174703120334
    -2.709174703120334    -2.709174703120334    2.709174703120334
 AtomData:  id type    cartes_x    cartes_y    cartes_z    fx    fy    fz
    1    0    0.0    0.0    0.0    0.0    0.0    0.0
 Energy
    -0.9425478018051763
 PlusStress:  xx          yy          zz          yz          xz          xy
     -0.12268640747207918    -0.12268640747207918    -0.12268640747207918    0.0    0.0    -7.302762349528523e-05
 Feature EFS_by Qe
END_CFG

BEGIN_CFG
 Size
    1
 Supercell
    2.7752485873725834    2.7752485873725834    2.7752485873725834
    -2.7752485873725834    2.7752533942463815    2.7752533942463815
    -2.7752533942463815    -2.7752533942463815    2.7752533942463815
 AtomData:  id type    cartes_x    cartes_y    cartes_z    fx    fy    fz
    1    0    0.0    0.0    0.0    0.0    0.0    0.0
 Energy
    -0.9308920767155087
 PlusStress:  xx          yy          zz          yz          xz          xy
     -0.22074932100619826    -0.22074932100619826    -0.22074932100619826    0.0    0.0    -7.850260348726823e-05
 Feature EFS_by Qe
END_CFG

BEGIN_CFG
 Size
    1
 Supercell
    2.8413268585266627    2.8413268585266627    2.8413268585266627
    -2.8413268585266627    2.8413317798514366    2.8413317798514366
    -2.8413317798514366    -2.8413317798514366    2.8413317798514366
 AtomData:  id type    cartes_x    cartes_y    cartes_z    fx    fy    fz
    1    0    0.0    0.0    0.0    0.0    0.0    0.0
 Energy
    -0.9131299805449089
 PlusStress:  xx          yy          zz          yz          xz          xy
     -0.30420718523082124    -0.30429142981271845    -0.30429142981271845    0.0    0.0    -8.424458189720887e-05
 Feature EFS_by Qe
END_CFG

BEGIN_CFG
 Size
    1
 Supercell
    2.907409565022925    2.90741460081508    2.907419636607235
    -2.90742467239939    2.9074297081915454    2.907434743983701
    -2.907444815568011    -2.907449851360166    2.9074548871523214
 AtomData:  id type    cartes_x    cartes_y    cartes_z    fx    fy    fz
    1    0    0.0    0.0    0.0    0.0    0.0    0.0
 Energy
    -0.8905185432711278
 PlusStress:  xx          yy          zz          yz          xz          xy
     -0.37503924225512564    -0.37503924225512564    -0.37503924225512564    -0.0    0.0    -0.0
 Feature EFS_by Qe
END_CFG

BEGIN_CFG
 Size
    1
 Supercell
    2.9734834008348208    2.9734834008348208    2.9734834008348208
    -2.9734834008348208    2.9734885510615476    2.9734885510615476
    -2.9734885510615476    -2.9734885510615476    2.9734885510615476
 AtomData:  id type    cartes_x    cartes_y    cartes_z    fx    fy    fz
    1    0    0.0    0.0    0.0    0.0    0.0    0.0
 Energy
    -0.8640258099517268
 PlusStress:  xx          yy          zz          yz          xz          xy
     -0.43527011680375505    -0.4351735617645351    -0.43527011680375505    0.0    0.0    -9.65550392199989e-05
 Feature EFS_by Qe
END_CFG

BEGIN_CFG
 Size
    1
 Supercell
    3.039556478141037    3.039556478141037    3.039556478141037
    -3.039556478141037    3.039561742809744    3.039561742809744
    -3.039561742809744    -3.039561742809744    3.039561742809744
 AtomData:  id type    cartes_x    cartes_y    cartes_z    fx    fy    fz
    1    0    0.0    0.0    0.0    0.0    0.0    0.0
 Energy
    -0.8345439058773536
 PlusStress:  xx          yy          zz          yz          xz          xy
     -0.48545976341905056    -0.48545976341905056    -0.48545976341905056    0.0    -0.0    -0.00010313570499661155
 Feature EFS_by Qe
END_CFG

BEGIN_CFG
 Size
    1
 Supercell
    3.105638841293366    3.105644220429454    3.1056495995655418
    -3.1056549787016303    3.1056603578377184    3.1056657369738065
    -3.105671116109894    -3.1056764952459823    3.105681874382071
 AtomData:  id type    cartes_x    cartes_y    cartes_z    fx    fy    fz
    1    0    0.0    0.0    0.0    0.0    0.0    0.0
 Energy
    -0.8027298499639528
 PlusStress:  xx          yy          zz          yz          xz          xy
     -0.527396406422512    -0.5272863946564664    -0.527396406422512    -0.0    0.0    -0.0
 Feature EFS_by Qe
END_CFG

BEGIN_CFG
 Size
    1
 Supercell
    3.1717130204491957    3.1717130204491957    3.1717130204491957
    -3.1717130204491957    3.171718514019855    3.171718514019855
    -3.171718514019855    -3.171718514019855    3.171718514019855
 AtomData:  id type    cartes_x    cartes_y    cartes_z    fx    fy    fz
    1    0    0.0    0.0    0.0    0.0    0.0    0.0
 Energy
    -0.7692583485277282
 PlusStress:  xx          yy          zz          yz          xz          xy
     -0.5622381205677549    -0.5622381205677549    -0.5622381205677549    0.0    -0.0    -0.0001171817675214162
 Feature EFS_by Qe
END_CFG

BEGIN_CFG
 Size
    1
 Supercell
    3.237791597123737    3.237791597123737    3.237791597123737
    -3.237791597123737    3.237797205145902    3.237797205145902
    -3.237797205145902    -3.237797205145902    3.237797205145902
 AtomData:  id type    cartes_x    cartes_y    cartes_z    fx    fy    fz
    1    0    0.0    0.0    0.0    0.0    0.0    0.0
 Energy
    -0.734561518378996
 PlusStress:  xx          yy          zz          yz          xz          xy
     -0.590262302371082    -0.590262302371082    -0.590262302371082    -0.0    0.0    -0.0
 Feature EFS_by Qe
END_CFG

BEGIN_CFG
 Size
    1
 Supercell
    3.3038698682778165    3.3038698682778165    3.3038698682778165
    -3.3038698682778165    3.3038755907509576    3.3038755907509576
    -3.3038755907509576    -3.3038755907509576    3.3038755907509576
 AtomData:  id type    cartes_x    cartes_y    cartes_z    fx    fy    fz
    1    0    0.0    0.0    0.0    0.0    0.0    0.0
 Energy
    -0.6990699797011075
 PlusStress:  xx          yy          zz          yz          xz          xy
     -0.6127069648458908    -0.6125745163018256    -0.6127069648458908    -0.0    0.0    0.0
 Feature EFS_by Qe
END_CFG

BEGIN_CFG
 Size
    2
 Supercell
    5.127603872073559    0.0    0.0
    0.0    5.127603872073559    0.0
    0.0    0.0    5.127603872073559
 AtomData:  id type    cartes_x    cartes_y    cartes_z    fx    fy    fz
    1    0    0.006339769427431748    -0.0042820619935686295    0.000804008287141134    -0.004972770997984931    0.00361934219216348    -0.0006705437548598677
    2    0    2.5574621666093478    2.568083998030348    2.5629979277496386    0.004972770997984931    -0.00361934219216348    0.0006705437548598677
 Energy
    -1.8874389121178865
 PlusStress:  xx          yy          zz          yz          xz          xy
     0.30636268942305467    0.30636268942305467    0.3064864723278721    0.0    0.0    0.0
 Feature EFS_by Qe
END_CFG

BEGIN_CFG
 Size
    2
 Supercell
    5.444775758414788    0.0    0.0
    0.0    5.444775758414788    0.0
    0.0    0.0    5.444775758414788
 AtomData:  id type    cartes_x    cartes_y    cartes_z    fx    fy    fz
    1    0    0.006344797191280753    -0.004287760909751645    0.0008058268122453885    -0.003137260313190224    0.002354873562408561    -0.0004298884808764182
    2    0    2.716043082016113    2.726675640117146    2.721582052395149    0.003137260313190224    -0.002354873562408561    0.0004298884808764182
 Energy
    -1.8890468329177565
 PlusStress:  xx          yy          zz          yz          xz          xy
     -0.289737044572417    -0.289737044572417    -0.2895888414805641    -0.0    0.0    0.0
 Feature EFS_by Qe
END_CFG

BEGIN_CFG
 Size
    2
 Supercell
    5.127603872073559    0.0    0.0
    0.0    5.127603872073559    0.0
    0.0    0.0    5.127603872073559
 AtomData:  id type    cartes_x    cartes_y    cartes_z    fx    fy    fz
    1    0    0.022711183070188212    -0.010274179878473792    -0.004292829961699983    -0.01978361187172062    0.009037428291151972    0.0039235037190036735
    2    0    2.541090752966591    2.5740761159152536    2.5680957915192537    0.01978361187172062    -0.009037428291151972    -0.0039235037190036735
 Energy
    -1.8869048886672317
 PlusStress:  xx          yy          zz          yz          xz          xy
     0.30599134070860246    0.3076005184712286    0.30797186718568076    0.0001237829048173958    -0.0002475658096347916    -0.000618914524086979
 Feature EFS_by Qe
END_CFG

BEGIN_CFG
 Size
    2
 Supercell
    5.444775758414788    0.0    0.0
    0.0    5.444775758414788    0.0
    0.0    0.0    5.444775758414788
 AtomData:  id type    cartes_x    cartes_y    cartes_z    fx    fy    fz
    1    0    0.023327052781776474    -0.011775961010299502    -0.00320697292170631    -0.013284891032825676    0.006826536516596759    0.0019746073762744567
    2    0    2.699060826425617    2.7341638402176938    2.7255948521291    0.013284891032825676    -0.006826536516596759    -0.0019746073762744567
 Energy
    -1.8886634244890956
 PlusStress:  xx          yy          zz          yz          xz          xy
     -0.2895888414805641    -0.2886996229294467    -0.2884032167457409    0.00014820309185289873    -0.00014820309185289873    -0.0005928123674115949
 Feature EFS_by Qe
END_CFG

BEGIN_CFG
 Size
    2
 Supercell
    5.021881144706641    0.0    0.0
    0.0    5.021881144706641    0.0
    0.0    0.0    5.021881144706641
 AtomData:  id type    cartes_x    cartes_y    cartes_z    fx    fy    fz
    1    0    0.007406772500327824    -0.004838080294810378    0.00025310280969321466    -0.006805453469089661    0.004686350084290953    -0.00019617518595018365
    2    0    2.503533297664878    2.5157781504600165    2.5106869673555128    0.006805453469089661    -0.004686350084290953    0.00019617518595018365
 Energy
    -1.8595000296882063
 PlusStress:  xx          yy          zz          yz          xz          xy
     0.5602519216196813    0.5604844877971905    0.5606007708859451    0.0    0.0    -0.00011628308875460383
 Feature EFS_by Qe
END_CFG

BEGIN_CFG
 Size
    2
 Supercell
    5.550500073313337    0.0    0.0
    0.0    5.550500073313337    0.0
    0.0    0.0    5.550500073313337
 AtomData:  id type    cartes_x    cartes_y    cartes_z    fx    fy    fz
    1    0    0.024645885475533216    -0.011495085651831922    -0.005316824020226846    -0.012143321143417004    0.00578035456164093    0.002816386614545625
    2    0    2.7506041511811357    2.786745122308501    2.7805668606768954    0.012143321143417004    -0.00578035456164093    -0.002816386614545625
 Energy
    -1.8684546165441134
 PlusStress:  xx          yy          zz          yz          xz          xy
     -0.44291123204623584    -0.44196920177602045    -0.44181219673098465    0.0001570050450358865    -0.000314010090071773    -0.000628020180143546
 Feature EFS_by Qe
END_CFG

BEGIN_CFG
 Size
    2
 Supercell
    5.233328186972109    0.0    0.0
    0.0    5.233328186972109    0.0
    0.0    0.0    5.233328186972109
 AtomData:  id type    cartes_x    cartes_y    cartes_z    fx    fy    fz
    1    0    0.013139840411849572    -0.00819225194388614    -0.000173746495807474    -0.009719284900771749    0.006311801625021048    0.00018666210353844475
    2    0    2.6035242530742053    2.624856345429941    2.6168378399818617    0.009719284900771749    -0.006311801625021048    -0.00018666210353844475
 Energy
    -1.9000490765724862
 PlusStress:  xx          yy          zz          yz          xz          xy
     0.08211750982855992    0.08251230554888954    0.08277550269577594    0.0    0.0    -0.00026319714688641
 Feature EFS_by Qe
END_CFG

BEGIN_CFG
 Size
    2
 Supercell
    5.233328186972109    0.0    0.0
    0.0    5.233328186972109    0.0
    0.0    0.0    5.233328186972109
 AtomData:  id type    cartes_x    cartes_y    cartes_z    fx    fy    fz
    1    0    0.044664886077350856    -0.019674173986102945    -0.013111057106821223    -0.03477340153893117    0.015547461984806825    0.010522754699060506
    2    0    2.571999207408704    2.636338267472157    2.629775150592876    0.03477340153893117    -0.015547461984806825    -0.010522754699060506
 Energy
    -1.8981801985801212
 PlusStress:  xx          yy          zz          yz          xz          xy
     0.08145951696134389    0.0871182556194017    0.08790784706006094    0.0007895914406592298    -0.00184238002820487    -0.0026319714688640993
 Feature EFS_by Qe
END_CFG

BEGIN_CFG
 Size
    2
 Supercell
    5.550500073313337    0.0    0.0
    0.0    5.550500073313337    0.0
    0.0    0.0    5.550500073313337
 AtomData:  id type    cartes_x    cartes_y    cartes_z    fx    fy    fz
    1    0    0.05070881361978333    -0.023071208604734217    -0.01404887073556339    -0.025543911827196262    0.011760483853928376    0.007354898255951447
    2    0    2.7245412230368853    2.798321245261403    2.7892977972922175    0.025543911827196262    -0.011760483853928376    -0.007354898255951447
 Energy
    -1.867135680663523
 PlusStress:  xx          yy          zz          yz          xz          xy
     -0.44228321186609226    -0.43851509078523093    -0.43788707060508736    0.0007850252251794325    -0.0017270554953947514    -0.0026690857656100704
 Feature EFS_by Qe
END_CFG

BEGIN_CFG
 Size
    2
 Supercell
    5.127603872073559    0.0    0.0
    0.0    5.127603872073559    0.0
    0.0    0.0    5.127603872073559
 AtomData:  id type    cartes_x    cartes_y    cartes_z    fx    fy    fz
    1    0    0.04113107445983806    -0.0384088295641542    -0.013847094256534648    -0.036498611889816804    0.034534546037295895    0.012560868328191708
    2    0    2.522671887097716    2.602210765600934    2.577649030293314    0.036498611889816804    -0.034534546037295895    -0.012560868328191708
 Energy
    -1.884402121437688
 PlusStress:  xx          yy          zz          yz          xz          xy
     0.30834321590013297    0.30920969623385475    0.31453236114100275    0.0017329606674435414    -0.0018567435722609373    -0.004951316192695832
 Feature EFS_by Qe
END_CFG

BEGIN_CFG
 Size
    2
 Supercell
    5.021881144706641    0.0    0.0
    0.0    5.021881144706641    0.0
    0.0    0.0    5.021881144706641
 AtomData:  id type    cartes_x    cartes_y    cartes_z    fx    fy    fz
    1    0    0.026142908863113833    -0.011993758737902871    -0.006737857931852899    -0.025927263337355795    0.012033020809507923    0.006970004083779199
    2    0    2.484797161302092    2.5229338289031085    2.517677928097059    0.025927263337355795    -0.012033020809507923    -0.006970004083779199
 Energy
    -1.8586715790406743
 PlusStress:  xx          yy          zz          yz          xz          xy
     0.559437939998399    0.5622287341285095    0.5626938664835279    0.0003488492662638115    -0.0005814154437730191    -0.0010465477987914344
 Feature EFS_by Qe
END_CFG

BEGIN_CFG
 Size
    2
 Supercell
    5.444775758414788    0.0    0.0
    0.0    5.444775758414788    0.0
    0.0    0.0    5.444775758414788
 AtomData:  id type    cartes_x    cartes_y    cartes_z    fx    fy    fz
    1    0    0.049424951947010236    -0.0268912029932348    -0.011538024309656777    -0.02899304697729025    0.015967066052265146    0.006996486448330797
    2    0    2.672961838305232    2.749279082200628    2.733925903517051    0.02899304697729025    -0.015967066052265146    -0.006996486448330797
 Energy
    -1.8870825790181698
 PlusStress:  xx          yy          zz          yz          xz          xy
     -0.2886996229294467    -0.2848463425412713    -0.2835125147145953    0.0008892185511173921    -0.0014820309185289869    -0.0035568742044695682
 Feature EFS_by Qe
END_CFG

BEGIN_CFG
 Size
    2
 Supercell
    5.127603872073559    0.0    0.0
    0.0    5.127603872073559    0.0
    0.0    0.0    5.127603872073559
 AtomData:  id type    cartes_x    cartes_y    cartes_z    fx    fy    fz
    1    0    0.05044998173694454    -0.022929106234751338    -0.014017843465474697    -0.04492925978930111    0.02050943434870275    0.012718991184494936
    2    0    2.5133519542998353    2.586731042271531    2.577820805023029    0.04492925978930111    -0.02050943434870275    -0.012718991184494936
 Energy
    -1.8844857964495532
 PlusStress:  xx          yy          zz          yz          xz          xy
     0.3045059458507937    0.3129231833783766    0.31428479533136794    0.0011140461433565623    -0.0023518751915305204    -0.0035897042397044785
 Feature EFS_by Qe
END_CFG

BEGIN_CFG
 Size
    2
 Supercell
    5.127603872073559    0.0    0.0
    0.0    5.127603872073559    0.0
    0.0    0.0    5.127603872073559
 AtomData:  id type    cartes_x    cartes_y    cartes_z    fx    fy    fz
    1    0    0.0818011773315767    -0.04222479236575135    -0.012486228188886324    -0.07317462991109579    0.03831895306481982    0.011423155093814823
    2    0    2.4820007587052033    2.6060267284025307    2.5762881642256663    0.07317462991109579    -0.03831895306481982    -0.011423155093814823
 Energy
    -1.8795444808615684
 PlusStress:  xx          yy          zz          yz          xz          xy
     0.30165893903999363    0.3220831183348639    0.3287673951950033    0.0017329606674435414    -0.0033421384300696875    -0.011140461433565623
 Feature EFS_by Qe
END_CFG

BEGIN_CFG
 Size
    2
 Supercell
    5.233328186972109    0.0    0.0
    0.0    5.233328186972109    0.0
    0.0    0.0    5.233328186972109
 AtomData:  id type    cartes_x    cartes_y    cartes_z    fx    fy    fz
    1    0    0.06643605466797353    -0.048311992490851725    -0.02479603228269255    -0.052249962370637386    0.03858840469637394    0.020007812084235112
    2    0    2.550228038818081    2.6649760859769063    2.641460125768747    0.052249962370637386    -0.03858840469637394    -0.020007812084235112
 Energy
    -1.8942814872475537
 PlusStress:  xx          yy          zz          yz          xz          xy
     0.08474948129742402    0.09185580426335709    0.09790933864174452    0.00368476005640974    -0.005132344364284995    -0.009869893008240375
 Feature EFS_by Qe
END_CFG

BEGIN_CFG
 Size
    2
 Supercell
    5.127603872073559    0.0    0.0
    0.0    5.127603872073559    0.0
    0.0    0.0    5.127603872073559
 AtomData:  id type    cartes_x    cartes_y    cartes_z    fx    fy    fz
    1    0    0.09344288916273251    -0.08200987080917008    -0.04075983593949993    -0.08455510468922549    0.07511067073705237    0.037967483236256386
    2    0    2.470359046874047    2.6458118068459493    2.60456177197628    0.08455510468922549    -0.07511067073705237    -0.037967483236256386
 Energy
    -1.8716372602534648
 PlusStress:  xx          yy          zz          yz          xz          xy
     0.31564640728435933    0.3239398619071248    0.34547808734535174    0.011140461433565623    -0.012502073386556976    -0.024880363868296555
 Feature EFS_by Qe
END_CFG

BEGIN_CFG
 Size
    2
 Supercell
    5.444775758414788    0.0    0.0
    0.0    5.444775758414788    0.0
    0.0    0.0    5.444775758414788
 AtomData:  id type    cartes_x    cartes_y    cartes_z    fx    fy    fz
    1    0    0.07151985197465743    -0.06512115150336839    -0.023227957862973325    -0.0425643589238099    0.03922192456292866    0.014173464352149182
    2    0    2.6508680272327365    2.7875090307107624    2.7456158370703676    0.0425643589238099    -0.03922192456292866    -0.014173464352149182
 Energy
    -1.8830531169755886
 PlusStress:  xx          yy          zz          yz          xz          xy
     -0.282326889979772    -0.28025204669383147    -0.2716562673663633    0.004001483480028265    -0.004446092755586961    -0.012300856623790594
 Feature EFS_by Qe
END_CFG

BEGIN_CFG
 Size
    2
 Supercell
    5.021881144706641    0.0    0.0
    0.0    5.021881144706641    0.0
    0.0    0.0    5.021881144706641
 AtomData:  id type    cartes_x    cartes_y    cartes_z    fx    fy    fz
    1    0    0.07660277060512616    -0.04303802359825038    -0.015579884063337882    -0.07736449993762813    0.044148672810867616    0.01621466330530581
    2    0    2.4343372995600796    2.5539790981396853    2.5265199542285437    0.07736449993762813    -0.044148672810867616    -0.01621466330530581
 Energy
    -1.8512793339132259
 PlusStress:  xx          yy          zz          yz          xz          xy
     0.5547866164482148    0.5744384584477429    0.5826945577493198    0.0023256617750920766    -0.004069908106411134    -0.011163176520441968
 Feature EFS_by Qe
END_CFG

BEGIN_CFG
 Size
    2
 Supercell
    5.339051972693449    0.0    0.0
    0.0    5.339051972693449    0.0
    0.0    0.0    5.339051972693449
 AtomData:  id type    cartes_x    cartes_y    cartes_z    fx    fy    fz
    1    0    0.08787278689257513    -0.05360781914222311    -0.016913048839098308    -0.06030034408398758    0.037429094193819054    0.012065416711774926
    2    0    2.5816531994541494    2.7231338054889473    2.6864379673754284    0.06030034408398758    -0.037429094193819054    -0.012065416711774926
 Energy
    -1.8924486643418277
 PlusStress:  xx          yy          zz          yz          xz          xy
     -0.11374547273023383    -0.1000513003376504    -0.0926452683294165    0.0026549926067253597    -0.004331830042551903    -0.013414699486612343
 Feature EFS_by Qe
END_CFG

BEGIN_CFG
 Size
    2
 Supercell
    5.550500073313337    0.0    0.0
    0.0    5.550500073313337    0.0
    0.0    0.0    5.550500073313337
 AtomData:  id type    cartes_x    cartes_y    cartes_z    fx    fy    fz
    1    0    0.08461293321760317    -0.050354136665098595    -0.01616805166355442    -0.04305055456815039    0.02606584580816464    0.008594427183167483
    2    0    2.690635993339051    2.8256030632217524    2.7914180883202233    0.04305055456815039    -0.02606584580816464    -0.008594427183167483
 Energy
    -1.8636685419132846
 PlusStress:  xx          yy          zz          yz          xz          xy
     -0.4391431109653746    -0.4308218435784725    -0.4265827073625036    0.002041065585466524    -0.0032971059457536163    -0.010205327927332622
 Feature EFS_by Qe
END_CFG

BEGIN_CFG
 Size
    2
 Supercell
    5.127603872073559    0.0    0.0
    0.0    5.127603872073559    0.0
    0.0    0.0    5.127603872073559
 AtomData:  id type    cartes_x    cartes_y    cartes_z    fx    fy    fz
    1    0    -0.15083615930285185    -0.027774179133473638    0.002737114946912866    0.13488316730235614    0.025919807137627673    -0.002500398012274622
    2    0    2.714638095339631    2.5915771406910273    2.5610648210898668    -0.13488316730235614    -0.025919807137627673    0.002500398012274622
 Energy
    -1.8660117143635944
 PlusStress:  xx          yy          zz          yz          xz          xy
     0.2747980486946187    0.365283352116135    0.3686254905462047    -0.0002475658096347916    -0.001361611952991354    0.013616119529913541
 Feature EFS_by Qe
END_CFG

BEGIN_CFG
 Size
    2
 Supercell
    5.233328186972109    0.0    0.0
    0.0    5.233328186972109    0.0
    0.0    0.0    5.233328186972109
 AtomData:  id type    cartes_x    cartes_y    cartes_z    fx    fy    fz
    1    0    0.06864975249106274    0.09117085701087851    0.132505776362859    -0.056617495638967355    -0.07548579471647741    -0.1066956470060383