BEGIN_CFG
 Size
    1
 Supercell
    1.9823191101784348    1.9823191101784348    1.9823191101784348
    -1.9823225436574508    1.9823225436574508    1.9823225436574508
    -1.9823225436574508    -1.9823225436574508    1.9823225436574508
 AtomData:  id type    cartes_x    cartes_y    cartes_z    fx    fy    fz
    1    0    0.0    0.0    0.0    0.0    0.0    0.0
 Energy
    0.0648883223636858
 PlusStress:  xx          yy          zz          yz          xz          xy
     2.8022022344070985    2.8022594519842956    2.8021736256185004    -2.8608788598220495e-05    2.8608788598220495e-05    2.8608788598220495e-05
 Feature EFS_by Qe
END_CFG

BEGIN_CFG
 Size
    1
 Supercell
    2.0483973813325136    2.0483973813325136    2.0483973813325136
    -2.048400929262506    2.048400929262506    2.048400929262506
    -2.048400929262506    -2.048400929262506    2.048400929262506
 AtomData:  id type    cartes_x    cartes_y    cartes_z    fx    fy    fz
    1    0    0.0    0.0    0.0    0.0    0.0    0.0
 Energy
    -0.18972589552777208
 PlusStress:  xx          yy          zz          yz          xz          xy
     2.353855075967846    2.353886642102245    2.353855075967846    -3.15661343985818e-05    3.15661343985818e-05    -0.0
 Feature EFS_by Qe
END_CFG

BEGIN_CFG
 Size
    1
 Supercell
    2.114475652486593    2.114475652486593    2.114475652486593
    -2.1144793148675616    2.1144793148675616    2.1144793148675616
    -2.1144793148675616    -2.1144793148675616    2.1144793148675616
 AtomData:  id type    cartes_x    cartes_y    cartes_z    fx    fy    fz
    1    0    0.0    0.0    0.0    0.0    0.0    0.0
 Energy
    -0.3951077771976088
 PlusStress:  xx          yy          zz          yz          xz          xy
     1.9396298570749564    1.9396992982126149    1.939595136506127    -0.0    0.0    -3.472056882920944e-05
 Feature EFS_by Qe
END_CFG

BEGIN_CFG
 Size
    1
 Supercell
    2.1805542291611344    2.1805542291611344    2.1805542291611344
    -2.1805580059936087    2.1805580059936087    2.1805580059936087
    -2.1805580059936087    -2.1805580059936087    2.1805580059936087
 AtomData:  id type    cartes_x    cartes_y    cartes_z    fx    fy    fz
    1    0    0.0    0.0    0.0    0.0    0.0    0.0
 Energy
    -0.5575562142830677
 PlusStress:  xx          yy          zz          yz          xz          xy
     1.5613313284252743    1.5613313284252743    1.5612932499595906    -7.615693136723042e-05    3.807846568361521e-05    -7.615693136723042e-05
 Feature EFS_by Qe
END_CFG

BEGIN_CFG
 Size
    1
 Supercell
    2.2466325003152137    2.2466325003152137    2.2466325003152137
    -2.246636391598664    2.246636391598664    2.246636391598664
    -2.246636391598664    -2.246636391598664    2.246636391598664
 AtomData:  id type    cartes_x    cartes_y    cartes_z    fx    fy    fz
    1    0    0.0    0.0    0.0    0.0    0.0    0.0
 Energy
    -0.6830385276819015
 PlusStress:  xx          yy          zz          yz          xz          xy
     1.2248966144778197    1.2249382606295427    1.2248966144778197    4.164615172303209e-05    4.164615172303209e-05    -8.329230344606418e-05
 Feature EFS_by Qe
END_CFG

BEGIN_CFG
 Size
    1
 Supercell
    2.3127055776214296    2.3127055776214296    2.3127055776214296
    -2.3127095833468605    2.3127095833468605    2.3127095833468605
    -2.3127095833468605    -2.3127095833468605    2.3127095833468605
 AtomData:  id type    cartes_x    cartes_y    cartes_z    fx    fy    fz
    1    0    0.0    0.0    0.0    0.0    0.0    0.0
 Energy
    -0.7775159157308735
 PlusStress:  xx          yy          zz          yz          xz          xy
     0.9328079009158396    0.9328079009158396    0.9327624712221312    -0.0    4.542969370846149e-05    -9.085938741692298e-05
 Feature EFS_by Qe
END_CFG

BEGIN_CFG
 Size
    1
 Supercell
    2.378783848775509    2.378783848775509    2.378783848775509
    -2.3787879689519165    2.3787879689519165    2.3787879689519165
    -2.3787879689519165    -2.3787879689519165    2.3787879689519165
 AtomData:  id type    cartes_x    cartes_y    cartes_z    fx    fy    fz
    1    0    0.0    0.0    0.0    0.0    0.0    0.0
 Energy
    -0.8463746001793879
 PlusStress:  xx          yy          zz          yz          xz          xy
     0.6820690968856151    0.6821185329294569    0.6820690968856151    0.0    4.943604384182178e-05    -4.943604384182178e-05
 Feature EFS_by Qe
END_CFG

BEGIN_CFG
 Size
    1
 Supercell
    2.444862119929588    2.444862119929588    2.444862119929588
    -2.4448663545569715    2.4448663545569715    2.4448663545569715
    -2.4448663545569715    -2.4448663545569715    2.4448663545569715
 AtomData:  id type    cartes_x    cartes_y    cartes_z    fx    fy    fz
    1    0    0.0    0.0    0.0    0.0    0.0    0.0
 Energy
    -0.8942281354709394
 PlusStress:  xx          yy          zz          yz          xz          xy
     0.46715474343059926    0.46720841470167357    0.46715474343059926    -0.0    5.3671271074287605e-05    -5.3671271074287605e-05
 Feature EFS_by Qe
END_CFG

BEGIN_CFG
 Size
    1
 Supercell
    2.5109403910836674    2.5109403910836674    2.5109403910836674
    -2.510944740162027    2.510944740162027    2.510944740162027
    -2.510944740162027    -2.510944740162027    2.510944740162027
 AtomData:  id type    cartes_x    cartes_y    cartes_z    fx    fy    fz
    1    0    0.0    0.0    0.0    0.0    0.0    0.0
 Energy
    -0.9248840747952727
 PlusStress:  xx          yy          zz          yz          xz          xy
     0.28361537451883884    0.28361537451883884    0.28361537451883884    -0.0    0.0    -5.81417331936939e-05
 Feature EFS_by Qe
END_CFG

BEGIN_CFG
 Size
    1
 Supercell
    2.5770186622377467    2.5770186622377467    2.5770186622377467
    -2.577023125767082    2.577023125767082    2.577023125767082
    -2.577023125767082    -2.577023125767082    2.577023125767082
 AtomData:  id type    cartes_x    cartes_y    cartes_z    fx    fy    fz
    1    0    0.0    0.0    0.0    0.0    0.0    0.0
 Energy
    -0.9414934966537203
 PlusStress:  xx          yy          zz          yz          xz          xy
     0.12665038279556934    0.12665038279556934    0.12665038279556934    0.0    0.0    -6.285378798787561e-05
 Feature EFS_by Qe
END_CFG

BEGIN_CFG
 Size
    1
 Supercell
    2.643097238912288    2.643097238912288    2.643097238912288
    -2.6431018168931293    2.6431018168931293    2.6431018168931293
    -2.6431018168931293    -2.6431018168931293    2.6431018168931293
 AtomData:  id type    cartes_x    cartes_y    cartes_z    fx    fy    fz
    1    0    0.0    0.0    0.0    0.0    0.0    0.0
 Energy
    -0.946689646871846
 PlusStress:  xx          yy          zz          yz          xz          xy
     -0.007934216561017771    -0.007866402744256935    -0.007934216561017771    0.0    -0.0    -6.781381676083566e-05
 Feature EFS_by Qe
END_CFG

BEGIN_CFG
 Size
    1
 Supercell
    2.709170010698042    2.709170010698042    2.709170010698042
    -2.709170010698042    2.709174703120334    2.709174703120334
    -2.709174703120334    -2.709174703120334    2.709174703120334
 AtomData:  id type    cartes_x    cartes_y    cartes_z    fx    fy    fz
    1    0    0.0    0.0    0.0    0.0    0.0    0.0
 Energy
    -0.9425478018051763
 PlusStress:  xx          yy          zz          yz          xz          xy
     -0.12268640747207918    -0.12268640747207918    -0.12268640747207918    0.0    0.0    -7.302762349528523e-05
 Feature EFS_by Qe
END_CFG

BEGIN_CFG
 Size
    1
 Supercell
    2.7752485873725834    2.7752485873725834    2.7752485873725834
    -2.7752485873725834    2.7752533942463815    2.7752533942463815
    -2.7752533942463815    -2.7752533942463815    2.7752533942463815
 AtomData:  id type    cartes_x    cartes_y    cartes_z    fx    fy    fz
    1    0    0.0    0.0    0.0    0.0    0.0    0.0
 Energy
    -0.9308920767155087
 PlusStress:  xx          yy          zz          yz          xz          xy
     -0.22074932100619826    -0.22074932100619826    -0.22074932100619826    0.0    0.0    -7.850260348726823e-05
 Feature EFS_by Qe
END_CFG

BEGIN_CFG
 Size
    1
 Supercell
    2.8413268585266627    2.8413268585266627    2.8413268585266627
    -2.8413268585266627    2.8413317798514366    2.8413317798514366
    -2.8413317798514366    -2.8413317798514366    2.8413317798514366
 AtomData:  id type    cartes_x    cartes_y    cartes_z    fx    fy    fz
    1    0    0.0    0.0    0.0    0.0    0.0    0.0
 Energy
    -0.9131299805449089
 PlusStress:  xx          yy          zz          yz          xz          xy
     -0.30420718523082124    -0.30429142981271845    -0.30429142981271845    0.0    0.0    -8.424458189720887e-05
 Feature EFS_by Qe
END_CFG

BEGIN_CFG
 Size
    1
 Supercell
    2.907409565022925    2.90741460081508    2.907419636607235
    -2.90742467239939    2.9074297081915454    2.907434743983701
    -2.907444815568011    -2.907449851360166    2.9074548871523214
 AtomData:  id type    cartes_x    cartes_y    cartes_z    fx    fy    fz
    1    0    0.0    0.0    0.0    0.0    0.0    0.0
 Energy
    -0.8905185432711278
 PlusStress:  xx          yy          zz          yz          xz          xy
     -0.37503924225512564    -0.37503924225512564    -0.37503924225512564    -0.0    0.0    -0.0
 Feature EFS_by Qe
END_CFG

BEGIN_CFG
 Size
    1
 Supercell
    2.9734834008348208    2.9734834008348208    2.9734834008348208
    -2.9734834008348208    2.9734885510615476    2.9734885510615476
    -2.9734885510615476    -2.9734885510615476    2.9734885510615476
 AtomData:  id type    cartes_x    cartes_y    cartes_z    fx    fy    fz
    1    0    0.0    0.0    0.0    0.0    0.0    0.0
 Energy
    -0.8640258099517268
 PlusStress:  xx          yy          zz          yz          xz          xy
     -0.43527011680375505    -0.4351735617645351    -0.43527011680375505    0.0    0.0    -9.65550392199989e-05
 Feature EFS_by Qe
END_CFG

BEGIN_CFG
 Size
    1
 Supercell
    3.039556478141037    3.039556478141037    3.039556478141037
    -3.039556478141037    3.039561742809744    3.039561742809744
    -3.039561742809744    -3.039561742809744    3.039561742809744
 AtomData:  id type    cartes_x    cartes_y    cartes_z    fx    fy    fz
    1    0    0.0    0.0    0.0    0.0    0.0    0.0
 Energy
    -0.8345439058773536
 PlusStress:  xx          yy          zz          yz          xz          xy
     -0.48545976341905056    -0.48545976341905056    -0.48545976341905056    0.0    -0.0    -0.00010313570499661155
 Feature EFS_by Qe
END_CFG

BEGIN_CFG
 Size
    1
 Supercell
    3.105638841293366    3.105644220429454    3.1056495995655418
    -3.1056549787016303    3.1056603578377184    3.1056657369738065
    -3.105671116109894    -3.1056764952459823    3.105681874382071
 AtomData:  id type    cartes_x    cartes_y    cartes_z    fx    fy    fz
    1    0    0.0    0.0    0.0    0.0    0.0    0.0
 Energy
    -0.8027298499639528
 PlusStress:  xx          yy          zz          yz          xz          xy
     -0.527396406422512    -0.5272863946564664    -0.527396406422512    -0.0    0.0    -0.0
 Feature EFS_by Qe
END_CFG

BEGIN_CFG
 Size
    1
 Supercell
    3.1717130204491957    3.1717130204491957    3.1717130204491957
    -3.1717130204491957    3.171718514019855    3.171718514019855
    -3.171718514019855    -3.171718514019855    3.171718514019855
 AtomData:  id type    cartes_x    cartes_y    cartes_z    fx    fy    fz
    1    0    0.0    0.0    0.0    0.0    0.0    0.0
 Energy
    -0.7692583485277282
 PlusStress:  xx          yy          zz          yz          xz          xy
     -0.5622381205677549    -0.5622381205677549    -0.5622381205677549    0.0    -0.0    -0.0001171817675214162
 Feature EFS_by Qe
END_CFG

BEGIN_CFG
 Size
    1
 Supercell
    3.237791597123737    3.237791597123737    3.237791597123737
    -3.237791597123737    3.237797205145902    3.237797205145902
    -3.237797205145902    -3.237797205145902    3.237797205145902
 AtomData:  id type    cartes_x    cartes_y    cartes_z    fx    fy    fz
    1    0    0.0    0.0    0.0    0.0    0.0    0.0
 Energy
    -0.734561518378996
 PlusStress:  xx          yy          zz          yz          xz          xy
     -0.590262302371082    -0.590262302371082    -0.590262302371082    -0.0    0.0    -0.0
 Feature EFS_by Qe
END_CFG

BEGIN_CFG
 Size
    1
 Supercell
    3.3038698682778165    3.3038698682778165    3.3038698682778165
    -3.3038698682778165    3.3038755907509576    3.3038755907509576
    -3.3038755907509576    -3.3038755907509576    3.3038755907509576
 AtomData:  id type    cartes_x    cartes_y    cartes_z    fx    fy    fz
    1    0    0.0    0.0    0.0    0.0    0.0    0.0
 Energy
    -0.6990699797011075
 PlusStress:  xx          yy          zz          yz          xz          xy
     -0.6127069648458908    -0.6125745163018256    -0.6127069648458908    -0.0    0.0    0.0
 Feature EFS_by Qe
END_CFG

BEGIN_CFG
 Size
    2
 Supercell
    5.021881144706641    0.0    0.0
    0.0    5.021881144706641    0.0
    0.0    0.0    5.021881144706641
 AtomData:  id type    cartes_x    cartes_y    cartes_z    fx    fy    fz
    1    0    0.0013639429189023235    -0.001557787531088    0.0001998708695593243    -0.0006250352254847922    0.0013331170893207107    -0.0001354971467834165
    2    0    2.5095761272463037    2.5124978576962937    2.5107401992956464    0.0006250352254847922    -0.0013331170893207107    0.0001354971467834165
 Energy
    -1.8595771739674092
 PlusStress:  xx          yy          zz          yz          xz          xy
     0.5602519216196813    0.5602519216196813    0.5603682047084358    0.0    0.0    0.0
 Feature EFS_by Qe
END_CFG

BEGIN_CFG
 Size
    2
 Supercell
    5.339051972693449    0.0    0.0
    0.0    5.339051972693449    0.0
    0.0    0.0    5.339051972693449
 AtomData:  id type    cartes_x    cartes_y    cartes_z    fx    fy    fz
    1    0    0.0015782237631281834    -0.001801930040784039    0.00023385047640397307    -0.000476939672264208    0.0010626370164247825    -0.00011492831994722425
    2    0    2.6679477625835966    2.6713279163875083    2.6692921358703203    0.000476939672264208    -0.0010626370164247825    0.00011492831994722425
 Energy
    -1.9001244521114131
 PlusStress:  xx          yy          zz          yz          xz          xy
     -0.1151428372600893    -0.11528257371307483    -0.1151428372600893    0.0    0.0    0.00013973645298554527
 Feature EFS_by Qe
END_CFG

BEGIN_CFG
 Size
    2
 Supercell
    5.127603872073559    0.0    0.0
    0.0    5.127603872073559    0.0
    0.0    0.0    5.127603872073559
 AtomData:  id type    cartes_x    cartes_y    cartes_z    fx    fy    fz
    1    0    0.0013649681507459815    -0.0015577660563359473    0.0002010020717852835    -0.0004705119138778979    0.0011593105025548861    -0.00011081455457998579
    2    0    2.562436967886034    2.5653607276138897    2.5636009339649943    0.0004705119138778979    -0.0011593105025548861    0.00011081455457998579
 Energy
    -1.8874893892389082
 PlusStress:  xx          yy          zz          yz          xz          xy
     0.30623890651823726    0.30623890651823726    0.30636268942305467    0.0    0.0    0.0001237829048173958
 Feature EFS_by Qe
END_CFG

BEGIN_CFG
 Size
    2
 Supercell
    5.550500073313337    0.0    0.0
    0.0    5.550500073313337    0.0
    0.0    0.0    5.550500073313337
 AtomData:  id type    cartes_x    cartes_y    cartes_z    fx    fy    fz
    1    0    0.0027808005367299824    -0.0022618287798751853    0.00020481345270526217    -0.0008533492033665263    0.0010091580666506826    -3.3167233273360016e-05
    2    0    2.772469236119939    2.7775113103865365    2.7750452232039633    0.0008533492033665263    -0.0010091580666506826    3.3167233273360016e-05
 Energy
    -1.8688485013567515
 PlusStress:  xx          yy          zz          yz          xz          xy
     -0.4430682370912717    -0.4430682370912717    -0.4430682370912717    -0.0    0.0    0.0001570050450358865
 Feature EFS_by Qe
END_CFG

BEGIN_CFG
 Size
    2
 Supercell
    5.550500073313337    0.0    0.0
    0.0    5.550500073313337    0.0
    0.0    0.0    5.550500073313337
 AtomData:  id type    cartes_x    cartes_y    cartes_z    fx    fy    fz
    1    0    0.01139406655049762    -0.0061260869309159305    -0.0009202729121553513    -0.005291587813945911    0.0030069053731158557    0.0005633287449762155
    2    0    2.763855970106171    2.781376123587585    2.7761703095688244    0.005291587813945911    -0.0030069053731158557    -0.0005633287449762155
 Energy
    -1.8687674114262336
 PlusStress:  xx          yy          zz          yz          xz          xy
     -0.4430682370912717    -0.44291123204623584    -0.44275422700119993    0.0    -0.0    -0.0
 Feature EFS_by Qe
END_CFG

BEGIN_CFG
 Size
    2
 Supercell
    5.127603872073559    0.0    0.0
    0.0    5.127603872073559    0.0
    0.0    0.0    5.127603872073559
 AtomData:  id type    cartes_x    cartes_y    cartes_z    fx    fy    fz
    1    0    0.007415027959405574    -0.004845072898722306    0.0002548419124420559    -0.005946704948678634    0.004130477539042858    -0.0001745779177721818
    2    0    2.556386908077374    2.568647008935502    2.563547094124338    0.005946704948678634    -0.004130477539042858    0.0001745779177721818
 Energy
    -1.8874210886597211
 PlusStress:  xx          yy          zz          yz          xz          xy
     0.30636268942305467    0.3064864723278721    0.3066102552326894    0.0    0.0    -0.0
 Feature EFS_by Qe
END_CFG

BEGIN_CFG
 Size
    2
 Supercell
    5.233328186972109    0.0    0.0
    0.0    5.233328186972109    0.0
    0.0    0.0    5.233328186972109
 AtomData:  id type    cartes_x    cartes_y    cartes_z    fx    fy    fz
    1    0    0.006333897104692344    -0.004275105795937515    0.00080122254542543    -0.004308140780840469    0.0031979383523569912    -0.0005962388679141231
    2    0    2.6103301963813625    2.620939199281992    2.615862870940629    0.004308140780840469    -0.0031979383523569912    0.0005962388679141231
 Energy
    -1.9001949296016392
 PlusStress:  xx          yy          zz          yz          xz          xy
     0.08211750982855992    0.08224910840200313    0.08238070697544632    -0.0    0.0    0.0
 Feature EFS_by Qe
END_CFG

BEGIN_CFG
 Size
    2
 Supercell
    5.444775758414788    0.0    0.0
    0.0    5.444775758414788    0.0
    0.0    0.0    5.444775758414788
 AtomData:  id type    cartes_x    cartes_y    cartes_z    fx    fy    fz
    1    0    0.009596961751781905    -0.0054992235159989356    -0.0007170769673832275    -0.005078186235520416    0.003076582274023457    0.0004861956443404945
    2    0    2.712790917455612    2.727887102723393    2.723103867219625    0.005078186235520416    -0.003076582274023457    -0.0004861956443404945
 Energy
    -1.889008464863764
 PlusStress:  xx          yy          zz          yz          xz          xy
     -0.289737044572417    -0.2895888414805641    -0.2894406383887112    0.0    0.0    -0.0
 Feature EFS_by Qe
END_CFG

BEGIN_CFG
 Size
    2
 Supercell
    5.339051972693449    0.0    0.0
    0.0    5.339051972693449    0.0
    0.0    0.0    5.339051972693449
 AtomData:  id type    cartes_x    cartes_y    cartes_z    fx    fy    fz
    1    0    0.007405798991323083    -0.004836113276865726    0.0002530710635056695    -0.004580163515749112    0.0031927961456479433    -0.00012624117470712997
    2    0    2.6621201873554012    2.67436209962359    2.669272915283219    0.004580163515749112    -0.0031927961456479433    0.00012624117470712997
 Energy
    -1.9000727504781025
 PlusStress:  xx          yy          zz          yz          xz          xy
     -0.1151428372600893    -0.1151428372600893    -0.11500310080710376    -0.0    0.0    0.0
 Feature EFS_by Qe
END_CFG

BEGIN_CFG
 Size
    2
 Supercell
    5.021881144706641    0.0    0.0
    0.0    5.021881144706641    0.0
    0.0    0.0    5.021881144706641
 AtomData:  id type    cartes_x    cartes_y    cartes_z    fx    fy    fz
    1    0    0.00633008118290272    -0.004271109913572998    0.0007989812901228265    -0.005702964350669756    0.004103480953820356    -0.0007497337381792078
    2    0    2.5046109933585323    2.515211180078779    2.510141088875083    0.005702964350669756    -0.004103480953820356    0.0007497337381792078
 Energy
    -1.8595203021709494
 PlusStress:  xx          yy          zz          yz          xz          xy
     0.5602519216196813    0.5603682047084358    0.5604844877971905    0.0    0.0    -0.0
 Feature EFS_by Qe
END_CFG

BEGIN_CFG
 Size
    2
 Supercell
    5.233328186972109    0.0    0.0
    0.0    5.233328186972109    0.0
    0.0    0.0    5.233328186972109
 AtomData:  id type    cartes_x    cartes_y    cartes_z    fx    fy    fz
    1    0    0.029778160716689997    -0.013021043862005305    -0.008480084994169605    -0.02293989834973432    0.010173598863516143    0.006813166779153233
    2    0    2.586886979435002    2.62968513734806    2.625144178480224    0.02293989834973432    -0.010173598863516143    -0.006813166779153233
 Energy
    -1.8993317844365265
 PlusStress:  xx          yy          zz          yz          xz          xy
     0.0818543126816735    0.0843546855770944    0.08474948129742402    0.0003947957203296149    -0.0007895914406592298    -0.00105278858754564
 Feature EFS_by Qe
END_CFG

BEGIN_CFG
 Size
    2
 Supercell
    5.444775758414788    0.0    0.0
    0.0    5.444775758414788    0.0
    0.0    0.0    5.444775758414788
 AtomData:  id type    cartes_x    cartes_y    cartes_z    fx    fy    fz
    1    0    0.03468104367079883    -0.016151927287337466    -0.00751487950176409    -0.02010988488740972    0.009453689924249414    0.004564222674951063
    2    0    2.6877068355365954    2.7385398064947313    2.729902758709158    0.02010988488740972    -0.009453689924249414    -0.004564222674951063
 Energy
    -1.8881623268152907
 PlusStress:  xx          yy          zz          yz          xz          xy
     -0.2892924352968583    -0.2873657951027706    -0.2869211858272119    0.00029640618370579746    -0.0005928123674115949    -0.0014820309185289869
 Feature EFS_by Qe
END_CFG

BEGIN_CFG
 Size
    2
 Supercell
    5.550500073313337    0.0    0.0
    0.0    5.550500073313337    0.0
    0.0    0.0    5.550500073313337
 AtomData:  id type    cartes_x    cartes_y    cartes_z    fx    fy    fz
    1    0    0.0371589328408108    -0.01707500337553382    -0.009536869225966976    -0.018584706377506064    0.008663589863404179    0.005002081576226505
    2    0    2.738091103815858    2.792325040032203    2.784786905882636    0.018584706377506064    -0.008663589863404179    -0.005002081576226505
 Energy
    -1.8679359675265914
 PlusStress:  xx          yy          zz          yz          xz          xy
     -0.44275422700119993    -0.4407131614157334    -0.44024214628062575    0.00047101513510765946    -0.0007850252251794325    -0.0014130454053229784
 Feature EFS_by Qe
END_CFG

BEGIN_CFG
 Size
    2
 Supercell
    5.233328186972109    0.0    0.0
    0.0    5.233328186972109    0.0
    0.0    0.0    5.233328186972109
 AtomData:  id type    cartes_x    cartes_y    cartes_z    fx    fy    fz
    1    0    0.016694840249259723    -0.007477902646364447    -0.004928225153671635    -0.012545441708064565    0.005753872197089332    0.003969526469049653
    2    0    2.5999692532367953    2.6241419961324186    2.6215923186397263    0.012545441708064565    -0.005753872197089332    -0.003969526469049653
 Energy
    -1.899952884322829
 PlusStress:  xx          yy          zz          yz          xz          xy
     0.08211750982855992    0.08290710126921914    0.08303869984266235    0.000131598573443205    -0.00026319714688641    -0.00026319714688641
 Feature EFS_by Qe
END_CFG

BEGIN_CFG
 Size
    2
 Supercell
    5.339051972693449    0.0    0.0
    0.0    5.339051972693449    0.0
    0.0    0.0    5.339051972693449
 AtomData:  id type    cartes_x    cartes_y    cartes_z    fx    fy    fz
    1    0    0.02840375649472915    -0.016513153846343567    -0.00545223987451455    -0.019234681305529737    0.011389216529535106    0.0038661681141977876
    2    0    2.6411222298519954    2.686039140193068    2.674978226221239    0.019234681305529737    -0.011389216529535106    -0.0038661681141977876
 Energy
    -1.8993395396814776
 PlusStress:  xx          yy          zz          yz          xz          xy
     -0.1151428372600893    -0.11360573627724829    -0.11290705401232058    0.00027947290597109053    -0.0004192093589566357    -0.0012576280768699074
 Feature EFS_by Qe
END_CFG

BEGIN_CFG
 Size
    2
 Supercell
    5.021881144706641    0.0    0.0
    0.0    5.021881144706641    0.0
    0.0    0.0    5.021881144706641
 AtomData:  id type    cartes_x    cartes_y    cartes_z    fx    fy    fz
    1    0    0.023270895036456102    -0.011738144987637303    -0.0032099864276964847    -0.02299440574085023    0.011763312067618353    0.003363517408388339
    2    0    2.4876691751287496    2.522678215152843    2.5141500565929022    0.02299440574085023    -0.011763312067618353    -0.003363517408388339
 Energy
    -1.8588624669132514
 PlusStress:  xx          yy          zz          yz          xz          xy
     0.5595542230871536    0.5616473186847365    0.562345017217264    0.00011628308875460383    -0.00023256617750920766    -0.0009302647100368306
 Feature EFS_by Qe
END_CFG

BEGIN_CFG
 Size
    2
 Supercell
    5.127603872073559    0.0    0.0
    0.0    5.127603872073559    0.0
    0.0    0.0    5.127603872073559
 AtomData:  id type    cartes_x    cartes_y    cartes_z    fx    fy    fz
    1    0    0.02620513234861913    -0.012278047471680136    -0.0045630546857582605    -0.022957381852545082    0.01085365570078775    0.004163901882651671
    2    0    2.5375968036881607    2.5760799835084596    2.568364990722538    0.022957381852545082    -0.01085365570078775    -0.004163901882651671
 Energy
    -1.886703796524671
 PlusStress:  xx          yy          zz          yz          xz          xy
     0.30586755780378505    0.30797186718568076    0.3085907817097677    0.0002475658096347916    -0.0003713487144521875    -0.0008664803337217707
 Feature EFS_by Qe
END_CFG

BEGIN_CFG
 Size
    2
 Supercell
    5.339051972693449    0.0    0.0
    0.0    5.339051972693449    0.0
    0.0    0.0    5.339051972693449
 AtomData:  id type    cartes_x    cartes_y    cartes_z    fx    fy    fz
    1    0    0.04145400123158375    -0.038535141518112236    -0.013894882758934702    -0.028200632923425943    0.026663113117420572    0.009761450995785941
    2    0    2.6280719851151404    2.708061127864837    2.683420869105659    0.028200632923425943    -0.026663113117420572    -0.009761450995785941
 Energy
    -1.8977208703840915
 PlusStress:  xx          yy          zz          yz          xz          xy
     -0.11290705401232058    -0.11220837174739282    -0.10857522396976868    0.0015371009828409978    -0.0016768374358265429    -0.0044715664955374485
 Feature EFS_by Qe
END_CFG

BEGIN_CFG
 Size
    2
 Supercell
    5.021881144706641    0.0    0.0
    0.0    5.021881144706641    0.0
    0.0    0.0    5.021881144706641
 AtomData:  id type    cartes_x    cartes_y    cartes_z    fx    fy    fz
    1    0    0.04015395725684536    -0.019304111120252328    -0.01020195154547154    -0.04020819980972408    0.01952701575693912    0.01053381044348496
    2    0    2.470787117284589    2.530244181285458    2.5211420217106775    0.04020819980972408    -0.01952701575693912    -0.01053381044348496
 Energy
    -1.8574035284518686
 PlusStress:  xx          yy          zz          yz          xz          xy
     0.5583913921996075    0.5645543959036017    0.5660660760574114    0.000697698532527623    -0.001395397065055246    -0.0025582279526012845
 Feature EFS_by Qe
END_CFG

BEGIN_CFG
 Size
    2
 Supercell
    5.550500073313337    0.0    0.0
    0.0    5.550500073313337    0.0
    0.0    0.0    5.550500073313337
 AtomData:  id type    cartes_x    cartes_y    cartes_z    fx    fy    fz
    1    0    0.057354982407568714    -0.02759819646452858    -0.014517887991758367    -0.028945481565231555    0.014108672547615176    0.007611237260397493
    2    0    2.7178939441490857    2.8028482331211975    2.7897679246484275    0.028945481565231555    -0.014108672547615176    -0.007611237260397493
 Energy
    -1.8666358075024618
 PlusStress:  xx          yy          zz          yz          xz          xy
     -0.44196920177602045    -0.4374160554699798    -0.4363170201547285    0.0009420302702153189    -0.002041065585466524    -0.0037681210808612757
 Feature EFS_by Qe
END_CFG

BEGIN_CFG
 Size
    2
 Supercell
    5.021881144706641    0.0    0.0
    0.0    5.021881144706641    0.0
    0.0    0.0    5.021881144706641
 AtomData:  id type    cartes_x    cartes_y    cartes_z    fx    fy    fz
    1    0    0.03082480865432383    -0.014008035265044703    -0.008572853302128708    -0.030697688501339686    0.014099416575538887    0.008854879952980768
    2    0    2.4801152615108824    2.5249481054302505    2.519512923467335    0.030697688501339686    -0.014099416575538887    -0.008854879952980768
 Energy
    -1.8583095315498213
 PlusStress:  xx          yy          zz          yz          xz          xy
     0.5590890907321353    0.5629264326610373    0.5636241311935648    0.0004651323550184153    -0.0008139816212822268    -0.001395397065055246
 Feature EFS_by Qe
END_CFG

BEGIN_CFG
 Size
    2
 Supercell
    5.127603872073559    0.0    0.0
    0.0    5.127603872073559    0.0
    0.0    0.0    5.127603872073559
 AtomData:  id type    cartes_x    cartes_y    cartes_z    fx    fy    fz
    1    0    0.04260013296918713    -0.023182922626418977    -0.00994293666833784    -0.03779496220116783    0.020723607258134605    0.009023801443372996
    2    0    2.5212018030675925    2.5869848586631985    2.573744872705117    0.03779496220116783    -0.020723607258134605    -0.009023801443372996
 Energy
    -1.885237783102184
 PlusStress:  xx          yy          zz          yz          xz          xy