BEGIN_CFG
 Size
    2
 Supercell
    3.9646430462831606    0.0    0.0
    0.0    3.9646430462831606    0.0
    0.0    0.0    3.9646430462831606
 AtomData:  id type    cartes_x    cartes_y    cartes_z    fx    fy    fz
    1    1   0.0    0.0    0.0    0.0    0.0    0.0
    2    1   1.9823215231415803    1.9823215231415803    1.9823215231415803    0.0    0.0    0.0
 Energy
    0.10422643633182815
 PlusStress:  xx          yy          zz          yz          xz          xy
     5.669808556762679    5.669808556762679    5.669808556762679    0.0    0.0    0.0
 Feature EFS_by Qe
END_CFG

BEGIN_CFG
 Size
    2
 Supercell
    4.096797655739425    0.0    0.0
    0.0    4.096797655739425    0.0
    0.0    0.0    4.096797655739425
 AtomData:  id type    cartes_x    cartes_y    cartes_z    fx    fy    fz
    1    1   0.0    0.0    0.0    0.0    0.0    0.0
    2    1   2.0483988278697125    2.0483988278697125    2.0483988278697125    0.0    0.0    0.0
 Energy
    -0.40823036306846916
 PlusStress:  xx          yy          zz          yz          xz          xy
     4.732580680261328    4.732580680261328    4.732580680261328    0.0    0.0    0.0
 Feature EFS_by Qe
END_CFG

BEGIN_CFG
 Size
    2
 Supercell
    4.228952265195689    0.0    0.0
    0.0    4.228952265195689    0.0
    0.0    0.0    4.228952265195689
 AtomData:  id type    cartes_x    cartes_y    cartes_z    fx    fy    fz
    1    1   0.0    0.0    0.0    0.0    0.0    0.0
    2    1   2.1144761325978445    2.1144761325978445    2.1144761325978445    0.0    0.0    0.0
 Energy
    -0.818907380906694
 PlusStress:  xx          yy          zz          yz          xz          xy
     3.8765430007651522    3.8765430007651522    3.8765430007651522    0.0    0.0    0.0
 Feature EFS_by Qe
END_CFG

BEGIN_CFG
 Size
    2
 Supercell
    4.361106874651952    0.0    0.0
    0.0    4.361106874651952    0.0
    0.0    0.0    4.361106874651952
 AtomData:  id type    cartes_x    cartes_y    cartes_z    fx    fy    fz
    1    1   0.0    0.0    0.0    0.0    0.0    0.0
    2    1   2.180553437325976    2.180553437325976    2.180553437325976    0.0    0.0    0.0
 Energy
    -1.1418999904449265
 PlusStress:  xx          yy          zz          yz          xz          xy
     3.109475176823933    3.109475176823933    3.109475176823933    0.0    0.0    0.0
 Feature EFS_by Qe
END_CFG

BEGIN_CFG
 Size
    2
 Supercell
    4.493262013285466    0.0    0.0
    0.0    4.493262013285466    0.0
    0.0    0.0    4.493262013285466
 AtomData:  id type    cartes_x    cartes_y    cartes_z    fx    fy    fz
    1    1   0.0    0.0    0.0    0.0    0.0    0.0
    2    1   2.246631006642733    2.246631006642733    2.246631006642733    0.0    0.0    0.0
 Energy
    -1.3907473637668772
 PlusStress:  xx          yy          zz          yz          xz          xy
     2.4362047173806296    2.4362047173806296    2.4362047173806296    0.0    0.0    0.0
 Feature EFS_by Qe
END_CFG

BEGIN_CFG
 Size
    2
 Supercell
    4.62541662274173    0.0    0.0
    0.0    4.62541662274173    0.0
    0.0    0.0    4.62541662274173
 AtomData:  id type    cartes_x    cartes_y    cartes_z    fx    fy    fz
    1    1   0.0    0.0    0.0    0.0    0.0    0.0
    2    1   2.312708311370865    2.312708311370865    2.312708311370865    0.0    0.0    0.0
 Energy
    -1.577882393165055
 PlusStress:  xx          yy          zz          yz          xz          xy
     1.8545321990882628    1.8545321990882628    1.8545321990882628    0.0    0.0    0.0
 Feature EFS_by Qe
END_CFG

BEGIN_CFG
 Size
    2
 Supercell
    4.757571232197994    0.0    0.0
    0.0    4.757571232197994    0.0
    0.0    0.0    4.757571232197994
 AtomData:  id type    cartes_x    cartes_y    cartes_z    fx    fy    fz
    1    1   0.0    0.0    0.0    0.0    0.0    0.0
    2    1   2.378785616098997    2.378785616098997    2.378785616098997    0.0    0.0    0.0
 Energy
    -1.714126103183844
 PlusStress:  xx          yy          zz          yz          xz          xy
     1.3542501083699885    1.3542501083699885    1.3542501083699885    0.0    0.0    0.0
 Feature EFS_by Qe
END_CFG

BEGIN_CFG
 Size
    2
 Supercell
    4.889725841654258    0.0    0.0
    0.0    4.889725841654258    0.0
    0.0    0.0    4.889725841654258
 AtomData:  id type    cartes_x    cartes_y    cartes_z    fx    fy    fz
    1    1   0.0    0.0    0.0    0.0    0.0    0.0
    2    1   2.444862920827129    2.444862920827129    2.444862920827129    0.0    0.0    0.0
 Energy
    -1.8086019346806097
 PlusStress:  xx          yy          zz          yz          xz          xy
     0.9262570424004212    0.9262570424004212    0.9262570424004212    0.0    0.0    0.0
 Feature EFS_by Qe
END_CFG

BEGIN_CFG
 Size
    2
 Supercell
    5.02188098028777    0.0    0.0
    0.0    5.02188098028777    0.0
    0.0    0.0    5.02188098028777
 AtomData:  id type    cartes_x    cartes_y    cartes_z    fx    fy    fz
    1    1   0.0    0.0    0.0    0.0    0.0    0.0
    2    1   2.510940490143885    2.510940490143885    2.510940490143885    0.0    0.0    0.0
 Energy
    -1.868892210424292
 PlusStress:  xx          yy          zz          yz          xz          xy
     0.5597870633936674    0.5597870633936674    0.5597870633936674    0.0    0.0    0.0
 Feature EFS_by Qe
END_CFG

BEGIN_CFG
 Size
    2
 Supercell
    5.154035589744034    0.0    0.0
    0.0    5.154035589744034    0.0
    0.0    0.0    5.154035589744034
 AtomData:  id type    cartes_x    cartes_y    cartes_z    fx    fy    fz
    1    1   0.0    0.0    0.0    0.0    0.0    0.0
    2    1   2.577017794872017    2.577017794872017    2.577017794872017    0.0    0.0    0.0
 Energy
    -1.9012437172814316
 PlusStress:  xx          yy          zz          yz          xz          xy
     0.2468887198276316    0.2468887198276316    0.2468887198276316    0.0    0.0    0.0
 Feature EFS_by Qe
END_CFG

BEGIN_CFG
 Size
    2
 Supercell
    5.286190199200299    0.0    0.0
    0.0    5.286190199200299    0.0
    0.0    0.0    5.286190199200299
 AtomData:  id type    cartes_x    cartes_y    cartes_z    fx    fy    fz
    1    1   0.0    0.0    0.0    0.0    0.0    0.0
    2    1   2.6430950996001497    2.6430950996001497    2.6430950996001497    0.0    0.0    0.0
 Energy
    -1.9108190035685766
 PlusStress:  xx          yy          zz          yz          xz          xy
     -0.020615290943974168    -0.020615290943974168    -0.020615290943974168    0.0    0.0    0.0
 Feature EFS_by Qe
END_CFG

BEGIN_CFG
 Size
    2
 Supercell
    5.418345337833812    0.0    0.0
    0.0    5.418345337833812    0.0
    0.0    0.0    5.418345337833812
 AtomData:  id type    cartes_x    cartes_y    cartes_z    fx    fy    fz
    1    1   0.0    0.0    0.0    0.0    0.0    0.0
    2    1   2.709172668916906    2.709172668916906    2.709172668916906    0.0    0.0    0.0
 Energy
    -1.901866314295603
 PlusStress:  xx          yy          zz          yz          xz          xy
     -0.24917048394804653    -0.24917048394804653    -0.24917048394804653    0.0    0.0    0.0
 Feature EFS_by Qe
END_CFG

BEGIN_CFG
 Size
    2
 Supercell
    5.550499947290076    0.0    0.0
    0.0    5.550499947290076    0.0
    0.0    0.0    5.550499947290076
 AtomData:  id type    cartes_x    cartes_y    cartes_z    fx    fy    fz
    1    1   0.0    0.0    0.0    0.0    0.0    0.0
    2    1   2.775249973645038    2.775249973645038    2.775249973645038    0.0    0.0    0.0
 Energy
    -1.8778967374296371
 PlusStress:  xx          yy          zz          yz          xz          xy
     -0.44416750328888166    -0.44416750328888166    -0.44416750328888166    0.0    0.0    0.0
 Feature EFS_by Qe
END_CFG

BEGIN_CFG
 Size
    2
 Supercell
    5.682654556746339    0.0    0.0
    0.0    5.682654556746339    0.0
    0.0    0.0    5.682654556746339
 AtomData:  id type    cartes_x    cartes_y    cartes_z    fx    fy    fz
    1    1   0.0    0.0    0.0    0.0    0.0    0.0
    2    1   2.8413272783731696    2.8413272783731696    2.8413272783731696    0.0    0.0    0.0
 Energy
    -1.8418255671626866
 PlusStress:  xx          yy          zz          yz          xz          xy
     -0.6104352839604277    -0.6104352839604277    -0.6104352839604277    0.0    0.0    0.0
 Feature EFS_by Qe
END_CFG

BEGIN_CFG
 Size
    2
 Supercell
    5.814809166202603    0.0    0.0
    0.0    5.814809166202603    0.0
    0.0    0.0    5.814809166202603
 AtomData:  id type    cartes_x    cartes_y    cartes_z    fx    fy    fz
    1    1   0.0    0.0    0.0    0.0    0.0    0.0
    2    1   2.9074045831013016    2.9074045831013016    2.9074045831013016    0.0    0.0    0.0
 Energy
    -1.7960644145236984
 PlusStress:  xx          yy          zz          yz          xz          xy
     -0.7515023360741959    -0.7515023360741959    -0.7515023360741959    0.0    0.0    0.0
 Feature EFS_by Qe
END_CFG

BEGIN_CFG
 Size
    2
 Supercell
    5.946964304836117    0.0    0.0
    0.0    5.946964304836117    0.0
    0.0    0.0    5.946964304836117
 AtomData:  id type    cartes_x    cartes_y    cartes_z    fx    fy    fz
    1    1   0.0    0.0    0.0    0.0    0.0    0.0
    2    1   2.9734821524180584    2.9734821524180584    2.9734821524180584    0.0    0.0    0.0
 Energy
    -1.742629508785285
 PlusStress:  xx          yy          zz          yz          xz          xy
     -0.8711167155463881    -0.8711167155463881    -0.8711167155463881    0.0    0.0    0.0
 Feature EFS_by Qe
END_CFG

BEGIN_CFG
 Size
    2
 Supercell
    6.079118914292381    0.0    0.0
    0.0    6.079118914292381    0.0
    0.0    0.0    6.079118914292381
 AtomData:  id type    cartes_x    cartes_y    cartes_z    fx    fy    fz
    1    1   0.0    0.0    0.0    0.0    0.0    0.0
    2    1   3.0395594571461904    3.0395594571461904    3.0395594571461904    0.0    0.0    0.0
 Energy
    -1.683204963985645
 PlusStress:  xx          yy          zz          yz          xz          xy
     -0.9715392446803647    -0.9715392446803647    -0.9715392446803647    0.0    0.0    0.0
 Feature EFS_by Qe
END_CFG

BEGIN_CFG
 Size
    2
 Supercell
    6.211273523748645    0.0    0.0
    0.0    6.211273523748645    0.0
    0.0    0.0    6.211273523748645
 AtomData:  id type    cartes_x    cartes_y    cartes_z    fx    fy    fz
    1    1   0.0    0.0    0.0    0.0    0.0    0.0
    2    1   3.1056367618743224    3.1056367618743224    3.1056367618743224    0.0    0.0    0.0
 Energy
    -1.6191982902014388
 PlusStress:  xx          yy          zz          yz          xz          xy
     -1.0554294470399657    -1.0554294470399657    -1.0554294470399657    0.0    0.0    0.0
 Feature EFS_by Qe
END_CFG

BEGIN_CFG
 Size
    2
 Supercell
    6.343428662382157    0.0    0.0
    0.0    6.343428662382157    0.0
    0.0    0.0    6.343428662382157
 AtomData:  id type    cartes_x    cartes_y    cartes_z    fx    fy    fz
    1    1   0.0    0.0    0.0    0.0    0.0    0.0
    2    1   3.1717143311910787    3.1717143311910787    3.1717143311910787    0.0    0.0    0.0
 Energy
    -1.5517950884759557
 PlusStress:  xx          yy          zz          yz          xz          xy
     -1.1244753748706746    -1.1244753748706746    -1.1244753748706746    0.0    0.0    0.0
 Feature EFS_by Qe
END_CFG

BEGIN_CFG
 Size
    2
 Supercell
    6.475583271838421    0.0    0.0
    0.0    6.475583271838421    0.0
    0.0    0.0    6.475583271838421
 AtomData:  id type    cartes_x    cartes_y    cartes_z    fx    fy    fz
    1    1   0.0    0.0    0.0    0.0    0.0    0.0
    2    1   3.2377916359192107    3.2377916359192107    3.2377916359192107    0.0    0.0    0.0
 Energy
    -1.481997146793674
 PlusStress:  xx          yy          zz          yz          xz          xy
     -1.1805222741463888    -1.1805222741463888    -1.1805222741463888    0.0    0.0    0.0
 Feature EFS_by Qe
END_CFG

BEGIN_CFG
 Size
    2
 Supercell
    6.607737881294686    0.0    0.0
    0.0    6.607737881294686    0.0
    0.0    0.0    6.607737881294686
 AtomData:  id type    cartes_x    cartes_y    cartes_z    fx    fy    fz
    1    1   0.0    0.0    0.0    0.0    0.0    0.0
    2    1   3.303868940647343    3.303868940647343    3.303868940647343    0.0    0.0    0.0
 Energy
    -1.4106431207478636
 PlusStress:  xx          yy          zz          yz          xz          xy
     -1.2251455379145901    -1.2251455379145901    -1.2251455379145901    0.0    0.0    0.0
 Feature EFS_by Qe
END_CFG

BEGIN_CFG
 Size
    2
 Supercell
    5.231114489478876    0.0    0.0
    0.0    5.231114489478876    0.0
    0.0    0.0    5.231114489478876
 AtomData:  id type    cartes_x    cartes_y    cartes_z    fx    fy    fz
    1    1   -0.03721781025829536    -0.03721781025829536    -0.03721781025829536    0.00018820490354134632    0.00018820490354134632    0.00018820490354134632
    2    1   2.578339434481143    2.578339434481143    2.578339434481143    -0.00018820490354134632    -0.00018820490354134632    -0.00018820490354134632
 Energy
    -1.9025856478647256
 PlusStress:  xx          yy          zz          yz          xz          xy
     0.08661350531244082    0.08661350531244082    0.08661350531244082    0.0    0.0    0.0
 Feature EFS_by Qe
END_CFG

BEGIN_CFG
 Size
    2
 Supercell
    5.114956379082633    0.0    0.0
    0.0    5.114956379082633    0.0
    0.0    0.0    5.114956379082633
 AtomData:  id type    cartes_x    cartes_y    cartes_z    fx    fy    fz
    1    1   0.046282171300491295    0.046282171300491295    0.046282171300491295    0.00016660761952840494    0.00016660761952840494    0.00016660761952840494
    2    1   2.603759337850532    2.603759337850532    2.603759337850532    -0.00016660761952840494    -0.00016660761952840494    -0.00016660761952840494
 Energy
    -1.8875103918021523
 PlusStress:  xx          yy          zz          yz          xz          xy
     0.33555601499527765    0.33555601499527765    0.33555601499527765    0.0    0.0    0.0
 Feature EFS_by Qe
END_CFG

BEGIN_CFG
 Size
    2
 Supercell
    5.1135963935527045    0.0    0.0
    0.0    5.1135963935527045    0.0
    0.0    0.0    5.1135963935527045
 AtomData:  id type    cartes_x    cartes_y    cartes_z    fx    fy    fz
    1    1   5.245368659018163    5.245368659018163    5.245368659018163    0.0002008033192155621    0.0002008033192155621    0.0002008033192155621
    2    1   2.688570462241812    2.688570462241812    2.688570462241812    -0.0002008033192155621    -0.0002008033192155621    -0.0002008033192155621
 Energy
    -1.8872263047028355
 PlusStress:  xx          yy          zz          yz          xz          xy
     0.33860325432348587    0.33860325432348587    0.33860325432348587    0.0    0.0    0.0
 Feature EFS_by Qe
END_CFG

BEGIN_CFG
 Size
    2
 Supercell
    5.256285334504811    0.0    0.0
    0.0    5.256285334504811    0.0
    0.0    0.0    5.256285334504811
 AtomData:  id type    cartes_x    cartes_y    cartes_z    fx    fy    fz
    1    1   5.33841216471378    0.10478983005722134    5.357206538555836    0.0005404463213714617    3.0339041827703368e-05    5.836408893973444e-05
    2    1   2.7102679205757747    2.7329309204240255    2.7290622944178304    -0.0005404463213714617    -3.0339041827703368e-05    -5.836408893973444e-05
 Energy
    -1.9037145131233046
 PlusStress:  xx          yy          zz          yz          xz          xy
     0.03626796824963698    0.03626796824963698    0.03626796824963698    0.00013333811856484185    -0.0    -0.0
 Feature EFS_by Qe
END_CFG

BEGIN_CFG
 Size
    2
 Supercell
    5.0559711078455996    0.0    0.0
    0.0    5.0559711078455996    0.0
    0.0    0.0    5.0559711078455996
 AtomData:  id type    cartes_x    cartes_y    cartes_z    fx    fy    fz
    1    1   0.0    0.0    0.0    0.0    0.0    0.0
    2    1   2.527985048325689    2.527985048325689    2.527985048325689    0.0    0.0    0.0
 Energy
    -1.8728714706658138
 PlusStress:  xx          yy          zz          yz          xz          xy
     0.4752627711343372    0.4752627711343372    0.4752627711343372    0.0    0.0    0.0
 Feature EFS_by Qe
END_CFG

BEGIN_CFG
 Size
    2
 Supercell
    5.516189152819414    0.0    0.0
    0.0    5.516189152819414    0.0
    0.0    0.0    5.516189152819414
 AtomData:  id type    cartes_x    cartes_y    cartes_z    fx    fy    fz
    1    1   0.0005582383422653247    0.0005582383422653247    0.0005598931990111705    0.00019309000349665447    0.00019309000349665447    0.00019309000349665447
    2    1   2.7586528147519727    2.7586528147519727    2.7586511598952264    -0.00019309000349665447    -0.00019309000349665447    -0.00019309000349665447
 Energy
    -1.878804237885106
 PlusStress:  xx          yy          zz          yz          xz          xy
     -0.3954500427067328    -0.3954500427067328    -0.3954500427067328    0.0    0.0    0.0
 Feature EFS_by Qe
END_CFG

BEGIN_CFG
 Size
    2
 Supercell
    5.5158922843827245    0.0    0.0
    0.0    5.5158922843827245    0.0
    0.0    0.0    5.5158922843827245
 AtomData:  id type    cartes_x    cartes_y    cartes_z    fx    fy    fz
    1    1   0.0007060342124009887    0.0007087921585431802    0.0006779031617506369    9.358823072274597e-05    9.358823072274597e-05    9.358823072274597e-05
    2    1   2.758654382760677    2.7586499700468496    2.7586814106328705    -9.358823072274597e-05    -9.358823072274597e-05    -9.358823072274597e-05
 Energy
    -1.8788650553815387
 PlusStress:  xx          yy          zz          yz          xz          xy
     -0.3950780263578815    -0.3950780263578815    -0.3950780263578815    -0.0    -0.0    -0.0
 Feature EFS_by Qe
END_CFG

BEGIN_CFG
 Size
    2
 Supercell
    5.185157562112223    0.0    0.0
    0.0    5.185157562112223    0.0
    0.0    0.0    5.185157562112223
 AtomData:  id type    cartes_x    cartes_y    cartes_z    fx    fy    fz
    1    1   -0.0016939909755420634    -0.0016971020700793304    -0.0017017687118852315    0.0001393539039882646    0.0001393539039882646    0.0001393539039882646
    2    1   2.5908853085963255    2.590888419690863    2.5908920493011562    -0.0001393539039882646    -0.0001393539039882646    -0.0001393539039882646
 Energy
    -1.8986357759431485
 PlusStress:  xx          yy          zz          yz          xz          xy
     0.18073326542671075    0.18073326542671075    0.18073326542671075    0.0    0.0    0.0
 Feature EFS_by Qe
END_CFG

BEGIN_CFG
 Size
    2
 Supercell
    5.241419158048653    0.0    0.0
    0.0    5.241419158048653    0.0
    0.0    0.0    5.241419158048653
 AtomData:  id type    cartes_x    cartes_y    cartes_z    fx    fy    fz
    1    1   0.01570591250709279    0.01570591250709279    0.01571115392625084    0.0002113448506980692    0.0002113448506980692    0.0002113448506980692
    2    1   2.6364280709373986    2.6364270226535673    2.6364228295182404    -0.0002113448506980692    -0.0002113448506980692    -0.0002113448506980692
 Energy
    -1.9031399442446855
 PlusStress:  xx          yy          zz          yz          xz          xy
     0.06636940395741944    0.06636940395741944    0.06636940395741944    -0.0    -0.0    -0.0
 Feature EFS_by Qe
END_CFG

BEGIN_CFG
 Size
    2
 Supercell
    5.433583525896016    0.0    0.0
    0.0    5.433583525896016    0.0
    0.0    0.0    5.433583525896016
 AtomData:  id type    cartes_x    cartes_y    cartes_z    fx    fy    fz
    1    1   0.0004428370573605253    0.0004488139992390109    0.00044501049077088365    0.00014552455656339074    0.00014552455656339074    0.00014552455656339074
    2    1   2.7172144957463225    2.717208518804444    2.717212322312912    -0.00014552455656339074    -0.00014552455656339074    -0.00014552455656339074
 Energy
    -1.8931906371549303
 PlusStress:  xx          yy          zz          yz          xz          xy
     -0.27219399155991436    -0.27219399155991436    -0.27219399155991436    0.0    0.0    0.0
 Feature EFS_by Qe
END_CFG

BEGIN_CFG
 Size
    2
 Supercell
    5.130651247110724    0.0    0.0
    0.0    5.130651247110724    0.0
    0.0    0.0    5.130651247110724
 AtomData:  id type    cartes_x    cartes_y    cartes_z    fx    fy    fz
    1    1   -0.045987053258102845    -0.04598910551860169    -0.04598602712785343    0.00020028909816763494    0.00020028909816763494    0.00020028909816763494
    2    1   2.519333952711137    2.5193370311018852    2.5193329265808875    -0.00020028909816763494    -0.00020028909816763494    -0.00020028909816763494
 Energy
    -1.890538613336048
 PlusStress:  xx          yy          zz          yz          xz          xy
     0.29946918750789553    0.29946918750789553    0.29946918750789553    -0.0    -0.0    -0.0
 Feature EFS_by Qe
END_CFG

BEGIN_CFG
 Size
    2
 Supercell
    5.34802932334119    0.0    0.0
    0.0    5.34802932334119    0.0
    0.0    0.0    5.34802932334119
 AtomData:  id type    cartes_x    cartes_y    cartes_z    fx    fy    fz
    1    1   0.002539779125654731    0.002539779125654731    0.002539244322722397    0.00014063945660808255    0.00014063945660808255    0.00014063945660808255
    2    1   2.676556045205047    2.676556045205047    2.676556045205047    -0.00014063945660808255    -0.00014063945660808255    -0.00014063945660808255
 Energy
    -1.9020433245036656
 PlusStress:  xx          yy          zz          yz          xz          xy
     -0.13103294687326586    -0.13103294687326586    -0.13103294687326586    -0.0    -0.0    -0.0
 Feature EFS_by Qe
END_CFG

BEGIN_CFG
 Size
    2
 Supercell
    5.093506179294418    0.0    0.0
    0.0    5.093506179294418    0.0
    0.0    0.0    5.093506179294418
 AtomData:  id type    cartes_x    cartes_y    cartes_z    fx    fy    fz
    1    1   5.0906930358315945    5.09069405453283    -0.002834026838159414    0.00013883968294033742    0.00013883968294033742    0.00013883968294033742
    2    1   2.543906838394219    2.543906329043602    2.5439282311201725    -0.00013883968294033742    -0.00013883968294033742    -0.00013883968294033742
 Energy
    -1.8827526131785817
 PlusStress:  xx          yy          zz          yz          xz          xy
     0.3849799476887206    0.3849799476887206    0.3849799476887206    0.0    0.0    0.0
 Feature EFS_by Qe
END_CFG

BEGIN_CFG
 Size
    2
 Supercell
    5.25407337360399    0.0    0.0
    0.0    5.25407337360399    0.0
    0.0    0.0    5.25407337360399
 AtomData:  id type    cartes_x    cartes_y    cartes_z    fx    fy    fz
    1    1   -0.001739098286662921    -0.0016981165143488098    -0.0016918116263004849    0.00017303538262749464    0.00017303538262749464    0.00017303538262749464
    2    1   2.6253254351042123    2.6252860295539104    2.625281300887874    -0.00017303538262749464    -0.00017303538262749464    -0.00017303538262749464
 Energy
    -1.9036421307782803
 PlusStress:  xx          yy          zz          yz          xz          xy
     0.04154899461110578    0.04154899461110578    0.04154899461110578    -0.0    -0.0    -0.0
 Feature EFS_by Qe
END_CFG

BEGIN_CFG
 Size
    2
 Supercell
    5.492356597056201    0.0    0.0
    0.0    5.492356597056201    0.0
    0.0    0.0    5.492356597056201
 AtomData:  id type    cartes_x    cartes_y    cartes_z    fx    fy    fz
    1    1   -0.2189291786082781    5.273404350550215    5.273336794564072    0.00024245522409766334    0.00024245522409766334    5.09078837447904e-05
    2    1   2.527249119919822    2.5272721878175295    2.5273402930393334    -0.00024245522409766334    -0.00024245522409766334    -5.09078837447904e-05
 Energy
    -1.8834987499844829
 PlusStress:  xx          yy          zz          yz          xz          xy
     -0.36113902324621305    -0.36113902324621305    -0.36113902324621305    0.0    0.0    -0.0
 Feature EFS_by Qe
END_CFG

BEGIN_CFG
 Size
    2
 Supercell
    4.979516108087329    0.0    0.0
    0.0    4.979516108087329    0.0
    0.0    0.0    4.979516108087329
 AtomData:  id type    cartes_x    cartes_y    cartes_z    fx    fy    fz
    1    1   0.2546868124287318    0.2546868124287318    0.2546868124287318    0.0001799773667745115    0.0001799773667745115    0.0001799773667745115
    2    1   2.744445862375618    2.744445862375618    2.744445862375618    -0.0001799773667745115    -0.0001799773667745115    -0.0001799773667745115
 Energy
    -1.8460276888358749
 PlusStress:  xx          yy          zz          yz          xz          xy
     0.6714608291036981    0.6714608291036981    0.6714608291036981    -0.00011336498887450585    -0.00011336498887450585    -0.00011336498887450585
 Feature EFS_by Qe
END_CFG

BEGIN_CFG
 Size
    2
 Supercell
    5.006648613175306    0.0    0.0
    0.0    5.006648613175306    0.0
    0.0    0.0    5.006648613175306
 AtomData:  id type    cartes_x    cartes_y    cartes_z    fx    fy    fz
    1    1   5.223419475520512    0.21679389292882653    5.223435496796075    0.0002157157296054502    0.0002157157296054502    0.0002157157296054502
    2    1   2.720130215473151    2.7201071848895304    2.720114194197589    -0.0002157157296054502    -0.0002157157296054502    -0.0002157157296054502
 Energy
    -1.8566269404041122
 PlusStress:  xx          yy          zz          yz          xz          xy
     0.5996476673845679    0.5996476673845679    0.5996476673845679    0.0    0.0    0.0
 Feature EFS_by Qe
END_CFG

BEGIN_CFG
 Size
    2
 Supercell
    5.372528642438143    0.0    0.0
    0.0    5.372528642438143    0.0
    0.0    0.0    5.372528642438143
 AtomData:  id type    cartes_x    cartes_y    cartes_z    fx    fy    fz
    1    1   -0.04567723851800909    -0.033683068323765934    -0.08331126440542404    0.00047436891671281966    0.00010670086744488895    3.445281021112078e-05
    2    1   2.6406864744809475    2.652677421158005    2.6029251196647065    -0.00047436891671281966    -0.00010670086744488895    -3.445281021112078e-05
 Energy
    -1.9001854656262367
 PlusStress:  xx          yy          zz          yz          xz          xy
     -0.17384788337127682    -0.1737055018124142    -0.17384788337127682    0.0001423815588626346    -0.0    -0.0
 Feature EFS_by Qe
END_CFG

BEGIN_CFG
 Size
    2
 Supercell
    5.3689032491052435    0.0    0.0
    0.0    5.3689032491052435    0.0
    0.0    0.0    5.3689032491052435
 AtomData:  id type    cartes_x    cartes_y    cartes_z    fx    fy    fz
    1    1   -0.15847713854578893    -0.1585259955653558    -0.15861404557864112    0.00013883968294033742    0.00013883968294033742    -2.056884191708703e-06
    2    1   2.5256502042505873    2.5256990612701538    2.5257871112834396    -0.00013883968294033742    -0.00013883968294033742    2.056884191708703e-06
 Energy
    -1.9004945872206918
 PlusStress:  xx          yy          zz          yz          xz          xy
     -0.16681778686808035    -0.16681778686808035    -0.16681778686808035    0.0    0.0    -0.0
 Feature EFS_by Qe
END_CFG

BEGIN_CFG
 Size
    2
 Supercell
    5.491922142534771    0.0    0.0
    0.0    5.491922142534771    0.0
    0.0    0.0    5.491922142534771
 AtomData:  id type    cartes_x    cartes_y    cartes_z    fx    fy    fz
    1    1   5.271528011801566    5.27160215275049    5.27173505726634    0.0005131926058313213    0.00016455073533669623    6.55631836107149e-05
    2    1   2.5260579183737226    2.5259843266170123    2.525850323716735    -0.0005131926058313213    -0.00016455073533669623    -6.55631836107149e-05
 Energy
    -1.8835773909536329
 PlusStress:  xx          yy          zz          yz          xz          xy
     -0.36120541642802684    -0.36120541642802684    -0.36120541642802684    0.00015208649112759024    -0.0    -0.0
 Feature EFS_by Qe
END_CFG

BEGIN_CFG
 Size
    2
 Supercell
    5.079797313481825    0.0    0.0
    0.0    5.079797313481825    0.0
    0.0    0.0    5.079797313481825
 AtomData:  id type    cartes_x    cartes_y    cartes_z    fx    fy    fz
    1    1   -0.025479247364962137    -0.02548483514200697    5.054183451488055    0.00021520150855752304    0.00021520150855752304    0.00012392727255044933
    2    1   2.5143162894904862    2.5143223852472625    2.5144503961395626    -0.00021520150855752304    -0.00021520150855752304    -0.00012392727255044933
 Energy
    -1.8793775822505268
 PlusStress:  xx          yy          zz          yz          xz          xy
     0.41726361739582724    0.41726361739582724    0.41726361739582724    0.0    0.0    -0.0
 Feature EFS_by Qe
END_CFG

BEGIN_CFG
 Size
    2
 Supercell
    5.299532345179336    0.0    0.0
    0.0    5.299532345179336    0.0
    0.0    0.0    5.299532345179336
 AtomData:  id type    cartes_x    cartes_y    cartes_z    fx    fy    fz
    1    1   5.404741311062008    5.404870089697996    5.404772578302845    0.0004468580906487157    -3.650969440282948e-05    0.0004468580906487157
    2    1   2.75526714270456    2.755139423975041    2.755236405416958    -0.0004468580906487157    3.650969440282948e-05    -0.0004468580906487157
 Energy
    -1.9040085323863423
 PlusStress:  xx          yy          zz          yz          xz          xy
     -0.045096631806768775    -0.04495997534674826    -0.045096631806768775    0.0    -0.0    0.0
 Feature EFS_by Qe
END_CFG

BEGIN_CFG
 Size
    2
 Supercell
    4.94814013063962    0.0    0.0
    0.0    4.94814013063962    0.0
    0.0    0.0    4.94814013063962
 AtomData:  id type    cartes_x    cartes_y    cartes_z    fx    fy    fz
    1    1   5.18945696629881    5.18945696629881    0.2413168356591898    0.00019206156140080013    0.00019206156140080013    0.00019206156140080013
    2    1   2.715386900979    2.715386900979    2.715386900979    -0.00019206156140080013    -0.00019206156140080013    -0.00019206156140080013
 Energy
    -1.8321923205762687
 PlusStress:  xx          yy          zz          yz          xz          xy
     0.7570689603623398    0.7570689603623398    0.7570689603623398    -0.0    -0.0    -0.0
 Feature EFS_by Qe
END_CFG

BEGIN_CFG
 Size
    2
 Supercell
    5.13643250855605    0.0    0.0
    0.0    5.13643250855605    0.0
    0.0    0.0    5.13643250855605
 AtomData:  id type    cartes_x    cartes_y    cartes_z    fx    fy    fz