BEGIN_CFG
 Size
    1
 Supercell
    1.9823191101784348    1.9823191101784348    1.9823191101784348
    -1.9823225436574508    1.9823225436574508    1.9823225436574508
    -1.9823225436574508    -1.9823225436574508    1.9823225436574508
 AtomData:  id type    cartes_x    cartes_y    cartes_z    fx    fy    fz
    1    0    0.0    0.0    0.0    0.0    0.0    0.0
 Energy
    0.0648883223636858
 PlusStress:  xx          yy          zz          yz          xz          xy
     2.8022022344070985    2.8022594519842956    2.8021736256185004    -2.8608788598220495e-05    2.8608788598220495e-05    2.8608788598220495e-05
 Feature EFS_by Qe
END_CFG

BEGIN_CFG
 Size
    1
 Supercell
    2.0483973813325136    2.0483973813325136    2.0483973813325136
    -2.048400929262506    2.048400929262506    2.048400929262506
    -2.048400929262506    -2.048400929262506    2.048400929262506
 AtomData:  id type    cartes_x    cartes_y    cartes_z    fx    fy    fz
    1    0    0.0    0.0    0.0    0.0    0.0    0.0
 Energy
    -0.18972589552777208
 PlusStress:  xx          yy          zz          yz          xz          xy
     2.353855075967846    2.353886642102245    2.353855075967846    -3.15661343985818e-05    3.15661343985818e-05    -0.0
 Feature EFS_by Qe
END_CFG

BEGIN_CFG
 Size
    1
 Supercell
    2.114475652486593    2.114475652486593    2.114475652486593
    -2.1144793148675616    2.1144793148675616    2.1144793148675616
    -2.1144793148675616    -2.1144793148675616    2.1144793148675616
 AtomData:  id type    cartes_x    cartes_y    cartes_z    fx    fy    fz
    1    0    0.0    0.0    0.0    0.0    0.0    0.0
 Energy
    -0.3951077771976088
 PlusStress:  xx          yy          zz          yz          xz          xy
     1.9396298570749564    1.9396992982126149    1.939595136506127    -0.0    0.0    -3.472056882920944e-05
 Feature EFS_by Qe
END_CFG

BEGIN_CFG
 Size
    1
 Supercell
    2.1805542291611344    2.1805542291611344    2.1805542291611344
    -2.1805580059936087    2.1805580059936087    2.1805580059936087
    -2.1805580059936087    -2.1805580059936087    2.1805580059936087
 AtomData:  id type    cartes_x    cartes_y    cartes_z    fx    fy    fz
    1    0    0.0    0.0    0.0    0.0    0.0    0.0
 Energy
    -0.5575562142830677
 PlusStress:  xx          yy          zz          yz          xz          xy
     1.5613313284252743    1.5613313284252743    1.5612932499595906    -7.615693136723042e-05    3.807846568361521e-05    -7.615693136723042e-05
 Feature EFS_by Qe
END_CFG

BEGIN_CFG
 Size
    1
 Supercell
    2.2466325003152137    2.2466325003152137    2.2466325003152137
    -2.246636391598664    2.246636391598664    2.246636391598664
    -2.246636391598664    -2.246636391598664    2.246636391598664
 AtomData:  id type    cartes_x    cartes_y    cartes_z    fx    fy    fz
    1    0    0.0    0.0    0.0    0.0    0.0    0.0
 Energy
    -0.6830385276819015
 PlusStress:  xx          yy          zz          yz          xz          xy
     1.2248966144778197    1.2249382606295427    1.2248966144778197    4.164615172303209e-05    4.164615172303209e-05    -8.329230344606418e-05
 Feature EFS_by Qe
END_CFG

BEGIN_CFG
 Size
    1
 Supercell
    2.3127055776214296    2.3127055776214296    2.3127055776214296
    -2.3127095833468605    2.3127095833468605    2.3127095833468605
    -2.3127095833468605    -2.3127095833468605    2.3127095833468605
 AtomData:  id type    cartes_x    cartes_y    cartes_z    fx    fy    fz
    1    0    0.0    0.0    0.0    0.0    0.0    0.0
 Energy
    -0.7775159157308735
 PlusStress:  xx          yy          zz          yz          xz          xy
     0.9328079009158396    0.9328079009158396    0.9327624712221312    -0.0    4.542969370846149e-05    -9.085938741692298e-05
 Feature EFS_by Qe
END_CFG

BEGIN_CFG
 Size
    1
 Supercell
    2.378783848775509    2.378783848775509    2.378783848775509
    -2.3787879689519165    2.3787879689519165    2.3787879689519165
    -2.3787879689519165    -2.3787879689519165    2.3787879689519165
 AtomData:  id type    cartes_x    cartes_y    cartes_z    fx    fy    fz
    1    0    0.0    0.0    0.0    0.0    0.0    0.0
 Energy
    -0.8463746001793879
 PlusStress:  xx          yy          zz          yz          xz          xy
     0.6820690968856151    0.6821185329294569    0.6820690968856151    0.0    4.943604384182178e-05    -4.943604384182178e-05
 Feature EFS_by Qe
END_CFG

BEGIN_CFG
 Size
    1
 Supercell
    2.444862119929588    2.444862119929588    2.444862119929588
    -2.4448663545569715    2.4448663545569715    2.4448663545569715
    -2.4448663545569715    -2.4448663545569715    2.4448663545569715
 AtomData:  id type    cartes_x    cartes_y    cartes_z    fx    fy    fz
    1    0    0.0    0.0    0.0    0.0    0.0    0.0
 Energy
    -0.8942281354709394
 PlusStress:  xx          yy          zz          yz          xz          xy
     0.46715474343059926    0.46720841470167357    0.46715474343059926    -0.0    5.3671271074287605e-05    -5.3671271074287605e-05
 Feature EFS_by Qe
END_CFG

BEGIN_CFG
 Size
    1
 Supercell
    2.5109403910836674    2.5109403910836674    2.5109403910836674
    -2.510944740162027    2.510944740162027    2.510944740162027
    -2.510944740162027    -2.510944740162027    2.510944740162027
 AtomData:  id type    cartes_x    cartes_y    cartes_z    fx    fy    fz
    1    0    0.0    0.0    0.0    0.0    0.0    0.0
 Energy
    -0.9248840747952727
 PlusStress:  xx          yy          zz          yz          xz          xy
     0.28361537451883884    0.28361537451883884    0.28361537451883884    -0.0    0.0    -5.81417331936939e-05
 Feature EFS_by Qe
END_CFG

BEGIN_CFG
 Size
    1
 Supercell
    2.5770186622377467    2.5770186622377467    2.5770186622377467
    -2.577023125767082    2.577023125767082    2.577023125767082
    -2.577023125767082    -2.577023125767082    2.577023125767082
 AtomData:  id type    cartes_x    cartes_y    cartes_z    fx    fy    fz
    1    0    0.0    0.0    0.0    0.0    0.0    0.0
 Energy
    -0.9414934966537203
 PlusStress:  xx          yy          zz          yz          xz          xy
     0.12665038279556934    0.12665038279556934    0.12665038279556934    0.0    0.0    -6.285378798787561e-05
 Feature EFS_by Qe
END_CFG

BEGIN_CFG
 Size
    1
 Supercell
    2.643097238912288    2.643097238912288    2.643097238912288
    -2.6431018168931293    2.6431018168931293    2.6431018168931293
    -2.6431018168931293    -2.6431018168931293    2.6431018168931293
 AtomData:  id type    cartes_x    cartes_y    cartes_z    fx    fy    fz
    1    0    0.0    0.0    0.0    0.0    0.0    0.0
 Energy
    -0.946689646871846
 PlusStress:  xx          yy          zz          yz          xz          xy
     -0.007934216561017771    -0.007866402744256935    -0.007934216561017771    0.0    -0.0    -6.781381676083566e-05
 Feature EFS_by Qe
END_CFG

BEGIN_CFG
 Size
    1
 Supercell
    2.709170010698042    2.709170010698042    2.709170010698042
    -2.709170010698042    2.709174703120334    2.709174703120334
    -2.709174703120334    -2.709174703120334    2.709174703120334
 AtomData:  id type    cartes_x    cartes_y    cartes_z    fx    fy    fz
    1    0    0.0    0.0    0.0    0.0    0.0    0.0
 Energy
    -0.9425478018051763
 PlusStress:  xx          yy          zz          yz          xz          xy
     -0.12268640747207918    -0.12268640747207918    -0.12268640747207918    0.0    0.0    -7.302762349528523e-05
 Feature EFS_by Qe
END_CFG

BEGIN_CFG
 Size
    1
 Supercell
    2.7752485873725834    2.7752485873725834    2.7752485873725834
    -2.7752485873725834    2.7752533942463815    2.7752533942463815
    -2.7752533942463815    -2.7752533942463815    2.7752533942463815
 AtomData:  id type    cartes_x    cartes_y    cartes_z    fx    fy    fz
    1    0    0.0    0.0    0.0    0.0    0.0    0.0
 Energy
    -0.9308920767155087
 PlusStress:  xx          yy          zz          yz          xz          xy
     -0.22074932100619826    -0.22074932100619826    -0.22074932100619826    0.0    0.0    -7.850260348726823e-05
 Feature EFS_by Qe
END_CFG

BEGIN_CFG
 Size
    1
 Supercell
    2.8413268585266627    2.8413268585266627    2.8413268585266627
    -2.8413268585266627    2.8413317798514366    2.8413317798514366
    -2.8413317798514366    -2.8413317798514366    2.8413317798514366
 AtomData:  id type    cartes_x    cartes_y    cartes_z    fx    fy    fz
    1    0    0.0    0.0    0.0    0.0    0.0    0.0
 Energy
    -0.9131299805449089
 PlusStress:  xx          yy          zz          yz          xz          xy
     -0.30420718523082124    -0.30429142981271845    -0.30429142981271845    0.0    0.0    -8.424458189720887e-05
 Feature EFS_by Qe
END_CFG

BEGIN_CFG
 Size
    1
 Supercell
    2.907409565022925    2.90741460081508    2.907419636607235
    -2.90742467239939    2.9074297081915454    2.907434743983701
    -2.907444815568011    -2.907449851360166    2.9074548871523214
 AtomData:  id type    cartes_x    cartes_y    cartes_z    fx    fy    fz
    1    0    0.0    0.0    0.0    0.0    0.0    0.0
 Energy
    -0.8905185432711278
 PlusStress:  xx          yy          zz          yz          xz          xy
     -0.37503924225512564    -0.37503924225512564    -0.37503924225512564    -0.0    0.0    -0.0
 Feature EFS_by Qe
END_CFG

BEGIN_CFG
 Size
    1
 Supercell
    2.9734834008348208    2.9734834008348208    2.9734834008348208
    -2.9734834008348208    2.9734885510615476    2.9734885510615476
    -2.9734885510615476    -2.9734885510615476    2.9734885510615476
 AtomData:  id type    cartes_x    cartes_y    cartes_z    fx    fy    fz
    1    0    0.0    0.0    0.0    0.0    0.0    0.0
 Energy
    -0.8640258099517268
 PlusStress:  xx          yy          zz          yz          xz          xy
     -0.43527011680375505    -0.4351735617645351    -0.43527011680375505    0.0    0.0    -9.65550392199989e-05
 Feature EFS_by Qe
END_CFG

BEGIN_CFG
 Size
    1
 Supercell
    3.039556478141037    3.039556478141037    3.039556478141037
    -3.039556478141037    3.039561742809744    3.039561742809744
    -3.039561742809744    -3.039561742809744    3.039561742809744
 AtomData:  id type    cartes_x    cartes_y    cartes_z    fx    fy    fz
    1    0    0.0    0.0    0.0    0.0    0.0    0.0
 Energy
    -0.8345439058773536
 PlusStress:  xx          yy          zz          yz          xz          xy
     -0.48545976341905056    -0.48545976341905056    -0.48545976341905056    0.0    -0.0    -0.00010313570499661155
 Feature EFS_by Qe
END_CFG

BEGIN_CFG
 Size
    1
 Supercell
    3.105638841293366    3.105644220429454    3.1056495995655418
    -3.1056549787016303    3.1056603578377184    3.1056657369738065
    -3.105671116109894    -3.1056764952459823    3.105681874382071
 AtomData:  id type    cartes_x    cartes_y    cartes_z    fx    fy    fz
    1    0    0.0    0.0    0.0    0.0    0.0    0.0
 Energy
    -0.8027298499639528
 PlusStress:  xx          yy          zz          yz          xz          xy
     -0.527396406422512    -0.5272863946564664    -0.527396406422512    -0.0    0.0    -0.0
 Feature EFS_by Qe
END_CFG

BEGIN_CFG
 Size
    1
 Supercell
    3.1717130204491957    3.1717130204491957    3.1717130204491957
    -3.1717130204491957    3.171718514019855    3.171718514019855
    -3.171718514019855    -3.171718514019855    3.171718514019855
 AtomData:  id type    cartes_x    cartes_y    cartes_z    fx    fy    fz
    1    0    0.0    0.0    0.0    0.0    0.0    0.0
 Energy
    -0.7692583485277282
 PlusStress:  xx          yy          zz          yz          xz          xy
     -0.5622381205677549    -0.5622381205677549    -0.5622381205677549    0.0    -0.0    -0.0001171817675214162
 Feature EFS_by Qe
END_CFG

BEGIN_CFG
 Size
    1
 Supercell
    3.237791597123737    3.237791597123737    3.237791597123737
    -3.237791597123737    3.237797205145902    3.237797205145902
    -3.237797205145902    -3.237797205145902    3.237797205145902
 AtomData:  id type    cartes_x    cartes_y    cartes_z    fx    fy    fz
    1    0    0.0    0.0    0.0    0.0    0.0    0.0
 Energy
    -0.734561518378996
 PlusStress:  xx          yy          zz          yz          xz          xy
     -0.590262302371082    -0.590262302371082    -0.590262302371082    -0.0    0.0    -0.0
 Feature EFS_by Qe
END_CFG

BEGIN_CFG
 Size
    1
 Supercell
    3.3038698682778165    3.3038698682778165    3.3038698682778165
    -3.3038698682778165    3.3038755907509576    3.3038755907509576
    -3.3038755907509576    -3.3038755907509576    3.3038755907509576
 AtomData:  id type    cartes_x    cartes_y    cartes_z    fx    fy    fz
    1    0    0.0    0.0    0.0    0.0    0.0    0.0
 Energy
    -0.6990699797011075
 PlusStress:  xx          yy          zz          yz          xz          xy
     -0.6127069648458908    -0.6125745163018256    -0.6127069648458908    -0.0    0.0    0.0
 Feature EFS_by Qe
END_CFG

BEGIN_CFG
 Size
    54
 Supercell
    15.065641846588292    0.0    0.0
    0.0    15.065641846588292    0.0
    0.0    0.0    15.065641846588292
 AtomData:  id type    cartes_x    cartes_y    cartes_z    fx    fy    fz
    1    0    0.00028624719508517756    1.5065641846588292e-06    0.00015668267520451825    0.001821626726680277    -0.0006157792534085058    -0.0009441091517812247
    2    0    2.5105551295215043    2.511228563712047    2.510627444602368    4.010921233057491e-05    -0.002635895159058038    0.001197362832201842
    3    0    5.021503472295205    -0.00021845180677553027    -3.7664104616470737e-05    -0.002064338883347346    7.327644560393492e-05    -0.0004527713007316821
    4    0    7.532683825953343    2.511105025448905    2.510772074764095    -0.0023926687817200643    -0.0010605801337411633    0.00035738336627884055
    5    0    10.04406153951967    -0.00012052513477270634    -9.19004152641886e-05    0.0002144300197673043    0.00018974742756387356    0.00020903070272280383
    6    0    12.554565445858897    2.511207471813462    2.511073387601027    0.002735911079549023    -0.0008111831083523322    -0.00021674401278637593
    7    0    0.00045046269121298995    5.02192229713854    -0.00037061478942607205    0.00024039816364799702    -0.0018403957811683024    0.0006034379573067903
    8    0    5.021577293940252    5.0220006384761415    0.00016120236775849474    -0.0011569965095358146    -0.002198036257782595    0.00015555175294870396
    9    0    10.044016342594132    5.021874087084631    -0.00012805795569600047    0.000383865730830438    -0.0012287302931270352    0.0009801045987445612
    10    0    2.510760022250618    7.53249550543026    2.5104617225420554    -3.393856427971723e-05    0.0003810375171404616    0.0014593582640278408
    11    0    0.0004595020763209429    10.043416730048637    0.0002711815532385893    0.0024392057524369494    0.0023240203221542724    -0.000583383351141503
    12    0    5.021625503994162    10.043846100841265    -0.00028172750253120107    -0.002054568690600154    0.0018026005618567993    -1.2598406437167757e-05
    13    0    7.532497011994445    7.532599458359002    2.5108534292300666    -0.0019213855368358094    -0.0007353355593938733    0.0010315266658350417
    14    0    10.04372105601394    10.043809943300833    0.0004926464883834372    0.0002918202307384777    0.00033090100172724295    -0.00046614103817520713
    15    0    12.55522230784341    7.532786272317899    2.511055308830811    0.0020612535593219168    -0.0015218360755427749    0.0005178202156011401
    16    0    2.511472627109961    12.55458955088585    2.5113490888468193    -0.0007749305510535434    0.002588586857334796    0.000700111443436894
    17    0    7.533300010704869    12.554859225874905    2.5105385573154733    -0.00298916475996964    0.002076423069113609    0.0002877064653712392
    18    0    12.554544353960312    12.554988790394786    2.510704279375785    0.003418281909839701    0.001922413978177619    0.00046794081052337386
    19    0    -0.00023803714117609504    0.0005393499781078609    5.021619477737423    0.0025345936868897906    -0.0005656427379952872    0.0011839930947583168
    20    0    5.021749042257304    -1.2052513477270634e-05    5.022089525763037    -0.0026623775236096353    0.00033501476709448143    0.0008245528457958572
    21    0    10.04423931409346    0.0001446301617272476    5.022211557461994    -0.0002663663075286898    0.00033501476709448143    0.0002787076036304051
    22    0    7.080851667896497e-05    5.022253741259164    5.021560721734222    0.001970750721242671    -0.002070509531398203    0.0011037746700971668
    23    0    5.021681246868994    5.021548669220744    5.0215923595821    -0.00253767901091522    -0.0016547621189716673    0.0010523526030066864
    24    0    10.04404195418527    5.021693299382471    5.022113630789992    5.090784641957584e-05    -0.0002555676734396888    0.0002846211413458104
    25    0    -0.0002636487323152951    10.04393197499979    5.022280859414488    0.002812015738842934    0.001647563029579    0.0011806506603974356
    26    0    5.02167672717644    10.043428782562113    5.022285379107042    -0.002792732463684004    0.0013565141298468796    0.001273981712166658
    27    0    10.044166999012596    10.043722562578123    5.021401025930648    4.987940507776623e-05    -0.0005543298832353814    0.001519522082523703
    28    0    2.510740436916217    2.510794673226865    7.532855574270394    -0.00033861431179081506    -0.0016326506301227604    -0.0003391285324617199
    29    0    -0.00018229426634371835    1.958533440056478e-05    10.043995250695547    0.0028377267723881743    -0.0004926234027268046    -0.0007579612689136846
    30    0    5.021637556507639    0.0005438696706618374    10.043338388711035    -0.0022792831237855547    3.496700562152684e-05    -0.0003892650478749385
    31    0    7.532682319389158    2.51106133508755    7.533174965877541    -0.003136488982183867    -0.0012770670361920867    0.0006664299894926292
    32    0    10.043502604207163    0.0003344572489942601    10.044263419120414    -6.42775838631008e-06    0.00027613650027588106    -0.0009225118836032228
    33    0    12.55450518329151    2.5107524894296946    7.53238853937315    0.0034748461836392294    -0.0011996768252209135    0.000587240006173289
    34    0    0.00021242555003689494    5.022100071712329    10.043956080026744    0.0006918839127024171    -0.002679861026420399    -0.0012228167554116298
    35    0    5.021515524808682    5.022335095725136    10.043299218042232    -0.0007751876613889958    -0.0029706528158170665    -0.0007384208834193021
    36    0    10.04357943898058    5.021578800504437    10.043888284638435    0.00011647098195993866    -0.0013326028686498057    -0.0016917860072768133
    37    0    2.5109393033885925    7.532822429858331    7.533030335715814    -0.00027330828658590463    0.0011878497497901028    -0.0014842979665667237
    38    0    -0.00016120236775849474    10.043406184099345    10.043596011186612    0.0016519339052816907    0.0024734014270521186    -0.00036818200036784144
    39    0    5.0219132577534324    10.043460420409993    10.04423931409346    -0.0017231534682020065    0.0020836221585062756    -0.0009759908333773227
    40    0    7.532703411287743    7.532985138790274    7.532539195791616    -0.0011261432692815261    -0.0005751558204070261    -0.0007337928973811589
    41    0    10.043597517750795    10.043320309940817    10.043371533123096    0.0008767462438926951    0.0017889737140778215    -0.0011143161938507156
    42    0    12.554517235804989    7.532739568828175    7.532719983493775    0.0016611898773579775    -0.0002866780240294296    9.770192747191324e-06
    43    0    2.510897119591422    12.554410269747876    7.532923369658702    -0.0006044663986486    0.0021970078164407856    0.000365353786677865
    44    0    7.532828456115069    12.55458955088585    7.532641642156172    -0.00298273700158333    0.00172032525451203    0.0005450739111590949
    45    0    12.555131913992328    12.554487104521293    7.5330905982832    0.0029665390504498286    0.00128169502223023    0.0007337928973811589
    46    0    2.5104933603899333    2.511145702681891    12.554249067380118    0.00023705572928711576    -0.0017920590381032505    -0.00012007052665627231
    47    0    7.533141821465479    2.5108142585612656    12.554958659111094    -0.002951626650993589    -0.0014411034302107201    -0.0013277177722762104
    48    0    12.554835120847951    2.510895613027237    12.555171084661128    0.0030927802251569585    -0.002049426483891106    -0.0005736131583943116
    49    0    2.510892599898868    7.532442775683798    12.555178617482053    -0.0006797997269361541    0.0018686779180680667    -0.00048105343763144644
    50    0    7.533149354286402    7.533134288644556    12.555037000448696    -0.0020178019126304604    -0.00035609781460157845    -0.0005569009865899054
    51    0    12.554710076020623    7.532962540327506    12.554399723798586    0.0023343047355723692    -0.00032704434669545687    -0.00042963137054096584
    52    0    2.5113415560258963    12.554914968749737    12.55433042184609    -0.0010567234787093773    0.0021049623163488253    -0.0007021683261205133
    53    0    7.533075532641353    12.554527781754281    12.554569965551451    -0.0027485094859861906    0.002011631264579603    -0.0010855198362800464
    54    0    12.554300290562395    12.5547025431997    12.5549676984962    0.003340891698868527    0.0017699475492543438    -0.000886259326304434
 Energy
    -50.287806110063684
 PlusStress:  xx          yy          zz          yz          xz          xy
     15.390527063727763    15.390527063727763    15.390527063727763    0.0    0.0    0.0
 Feature EFS_by Qe
END_CFG

BEGIN_CFG
 Size
    54
 Supercell
    15.699984031739117    0.0    0.0
    0.0    15.699984031739117    0.0
    0.0    0.0    15.699984031739117
 AtomData:  id type    cartes_x    cartes_y    cartes_z    fx    fy    fz
    1    0    0.00028730970778082583    1.5699984031739116e-06    0.00015699984031739117    0.0017848599487105832    -0.0002871922447003344    -0.0006430329489664605
    2    0    2.6162783090154726    2.6169518383304347    2.6163505289420192    -3.11103505897408e-05    -0.002162040810819259    0.0012225596450761774
    3    0    5.232952257628545    -0.00021822977804117374    -3.767996167617388e-05    -0.0022242615119987402    0.00014089646382791697    -0.0003918361512294625
    4    0    7.8498554260084825    2.616829378454987    2.616496538793514    -0.0022890533165327463    -0.000846150113973859    0.0005946962059014087
    5    0    10.46695641418722    -0.00012088987704439121    -9.262990578726079e-05    0.0003190739262964324    0.0003165028229419084    0.00020697382003918459
    6    0    13.08318448325379    2.616931428351193    2.6167979784869235    0.0028318132346727694    -0.0006427758386310081    0.00014398178785334582
    7    0    0.0004505895417109126    5.2333714472021935    -0.00037051962314904314    0.0004332309152372994    -0.0016586187740034533    0.0006818566096197734
    8    0    5.233024477555092    5.233448377123949    0.0001617098355269129    -0.0014899543939466766    -0.002043512946175701    0.0001828054485066587
    9    0    10.466910884233524    5.233321207253292    -0.00012873986906026074    0.0004427439976490384    -0.0010194424800687787    0.0008479498863220258
    10    0    2.6164824088078853    7.849668596198504    2.616185679109686    -9.950169982008005e-05    -6.402047352764841e-05    0.0013583139021950464
    11    0    0.00046000953212995614    10.466312714841917    0.0002716097237490867    0.002551820079365102    0.00199954707881334    -0.0006489464866818657
    12    0    5.233074717503993    10.466741324405984    -0.0002810297141681302    -0.002046855380536582    0.0016449919262244758    -0.00021134469574187544
    13    0    7.849668596198504    7.849772216093114    2.6165781787104794    -0.0018884754138979018    -0.0009626210959337977    0.0009662206406301314
    14    0    10.466615724533728    10.466706784441113    0.0004914095001934344    0.0004885096373595661    0.00010875767189636658    -0.0006589737897645095
    15    0    13.083840742586316    7.849957475904689    2.6167775685076826    0.0021018769923233965    -0.0015817427837031845    0.0006003526332813616
    16    0    2.6171967580813296    13.083208033229837    2.617072728207479    -0.0006288918805165783    0.0024003820917836366    0.0007227371529567054
    17    0    7.850472435380929    13.083478072955183    2.616262609031441    -0.0026965731982248053    0.0019342410536084295    0.000350698497557078
    18    0    13.083162503276144    13.083608382822648    2.616427458863775    0.003178397966862609    0.0018164845199712288    0.0004841387616568754
    19    0    -0.00023863975728243456    0.0005385094522886517    5.2330652975135745    0.002415808711910781    -0.00013601136745432132    0.0010402684172404234
    20    0    5.2331971773794415    -1.2559987225391293e-05    5.233536297034527    -0.002753137472024334    0.0005098497952021156    0.0008019271362760456
    21    0    10.467133824006776    0.00014443985309199988    5.233658756909974    5.7849825476790724e-05    0.0005934106542241466    0.00025428212176242684
    22    0    7.064992814282602e-05    5.233702716865263    5.23300877757106    0.0018046574445404182    -0.0021867234030226892    0.0007816154197753058
    23    0    5.233129667448106    5.2329962175838345    5.233040177539124    -0.002741824617264428    -0.0017054128550557906    0.0009999020945743963
    24    0    10.46693757420638    5.233140657436926    5.2335614170089775    0.0003363003187717434    -0.00043245958423094227    0.0002658520868577849
    25    0    -0.0002637597317332171    10.466827674318157    5.233729406838117    0.0026405231450961813    0.0014768417668386041    0.0012824663532365872
    26    0    5.2331233874544925    10.466323704830739    5.233732546834924    -0.00270994293566833    0.0012109896799808193    0.0013482865991124027
    27    0    10.467061604080232    10.466617294532133    5.2328486377339365    0.0003080181818719791    -0.0004494288663708008    0.001468357125768675
    28    0    2.6164635688270472    2.616518518771159    7.850028125832831    -0.00031290327824557476    -0.0012400431478869407    -0.0004077769920275115
    29    0    -0.00018211981476817376    1.883998083808694e-05    10.466890474254285    0.0027564799063852148    -0.00033501476709448143    -0.0007435630901283501
    30    0    5.233085707492815    0.0005432194474981734    10.466232644923354    -0.0023795561546119917    0.0001987462893047077    -0.00046871214152973106
    31    0    7.849853856010079    2.616785418499698    7.850345265510272    -0.002938771134220969    -0.0011770511157011018    0.0007417633177801832
    32    0    10.466399064754091    0.00033440965987604316    10.467158943981229    -6.762001822398204e-05    0.0002853924723521676    -0.0009729055093518938
    33    0    13.083124823314469    2.616477698812676    7.849558696310282    0.003214393413825945    -0.0009456518137939391    0.0002884777963775964
    34    0    0.00021194978442847805    5.233547287023349    10.466851224294206    0.0009258543179641042    -0.002389840568030088    -0.0011839930947583168
    35    0    5.232963247617368    5.2337827867838245    10.466194964961678    -0.0010428395205949474    -0.002683460571116733    -0.0007641319169645424
    36    0    10.466474424677443    5.233027617551898    10.46678371436287    0.00018589077253208753    -0.0011806506603974356    -0.0015735152529687078
    37    0    2.6166629586242505    7.849993585867961    7.850202395655584    -0.0002982479891247878    0.000679028395929797    -0.001358828122865951
    38    0    -0.0001617098355269129    10.466301724853095    10.46649169465988    0.0015362342543281094    0.0022345459254168366    -0.00033681453944264827
    39    0    5.233360457213371    10.4663551047988    10.467133824006776    -0.001895417392955117    0.0019370692672984059    -0.0008440932312902399
    40    0    7.84987426598932    7.8501552957034875    7.84971098615539    -0.001031783776170494    -0.0006463753833273417    -0.0003684391107032938
    41    0    10.466493264658283    10.466215374940921    10.466267184888226    0.0006967690090760128    0.0015485755504298245    -0.0009142843528687459
    42    0    13.083137383301695    7.849910375952594    7.8498915359717545    0.001484555076902176    -0.0004486575353644436    7.481910761664935e-05
    43    0    2.616620568667365    13.083029053411876    7.850095635764167    -0.000522191091303831    0.0017766324179761062    0.0003810375171404616
    44    0    7.849998295863171    13.083209603228239    7.8498130360515965    -0.0028492967374835324    0.0014578156020151264    0.0007114242981967997
    45    0    13.083751252677336    13.08310598333363    7.8502604855965    0.002887606177465941    0.001124086386597907    0.0007816154197753058
    46    0    2.6162186490761523    2.6168701984134697    13.08286734357635    5.090784641957584e-05    -0.0014470169679261255    -0.00024399770834433068
    47    0    7.850312295543806    2.6165389287504    13.083578552852988    -0.002725883776466379    -0.0011755084536883877    -0.0013991944455319784
    48    0    13.083454522979135    2.616620568667365    13.083790502637415    0.0029084321146375853    -0.0016637609807125012    -0.0005265619670065218
    49    0    2.616617428670559    7.849615216252796    13.083796782631028    -0.0006211785704530062    0.0014297905754508144    -0.0004895380787013758
    50    0    7.850321715534226    7.850306015550194    13.083655482774741    -0.001843481105193731    -0.00022085777815361438    -0.0007520477311982794
    51    0    13.08332892310688    7.850133315725845    13.083019633421456    0.0019776927002998854    -0.0002625096524969037    -0.0006193787981048395
    52    0    2.617066448213866    13.083534592897697    13.082948983493315    -0.0008554060860501455    0.0018483662015673268    -0.0007471626348246837