BEGIN_CFG
 Size
    1
 Supercell
    1.9823191101784348    1.9823191101784348    1.9823191101784348
    -1.9823225436574508    1.9823225436574508    1.9823225436574508
    -1.9823225436574508    -1.9823225436574508    1.9823225436574508
 AtomData:  id type    cartes_x    cartes_y    cartes_z    fx    fy    fz
    1    0    0.0    0.0    0.0    0.0    0.0    0.0
 Energy
    0.0648883223636858
 PlusStress:  xx          yy          zz          yz          xz          xy
     2.8022022344070985    2.8022594519842956    2.8021736256185004    -2.8608788598220495e-05    2.8608788598220495e-05    2.8608788598220495e-05
 Feature EFS_by Qe
END_CFG

BEGIN_CFG
 Size
    1
 Supercell
    2.0483973813325136    2.0483973813325136    2.0483973813325136
    -2.048400929262506    2.048400929262506    2.048400929262506
    -2.048400929262506    -2.048400929262506    2.048400929262506
 AtomData:  id type    cartes_x    cartes_y    cartes_z    fx    fy    fz
    1    0    0.0    0.0    0.0    0.0    0.0    0.0
 Energy
    -0.18972589552777208
 PlusStress:  xx          yy          zz          yz          xz          xy
     2.353855075967846    2.353886642102245    2.353855075967846    -3.15661343985818e-05    3.15661343985818e-05    -0.0
 Feature EFS_by Qe
END_CFG

BEGIN_CFG
 Size
    1
 Supercell
    2.114475652486593    2.114475652486593    2.114475652486593
    -2.1144793148675616    2.1144793148675616    2.1144793148675616
    -2.1144793148675616    -2.1144793148675616    2.1144793148675616
 AtomData:  id type    cartes_x    cartes_y    cartes_z    fx    fy    fz
    1    0    0.0    0.0    0.0    0.0    0.0    0.0
 Energy
    -0.3951077771976088
 PlusStress:  xx          yy          zz          yz          xz          xy
     1.9396298570749564    1.9396992982126149    1.939595136506127    -0.0    0.0    -3.472056882920944e-05
 Feature EFS_by Qe
END_CFG

BEGIN_CFG
 Size
    1
 Supercell
    2.1805542291611344    2.1805542291611344    2.1805542291611344
    -2.1805580059936087    2.1805580059936087    2.1805580059936087
    -2.1805580059936087    -2.1805580059936087    2.1805580059936087
 AtomData:  id type    cartes_x    cartes_y    cartes_z    fx    fy    fz
    1    0    0.0    0.0    0.0    0.0    0.0    0.0
 Energy
    -0.5575562142830677
 PlusStress:  xx          yy          zz          yz          xz          xy
     1.5613313284252743    1.5613313284252743    1.5612932499595906    -7.615693136723042e-05    3.807846568361521e-05    -7.615693136723042e-05
 Feature EFS_by Qe
END_CFG

BEGIN_CFG
 Size
    1
 Supercell
    2.2466325003152137    2.2466325003152137    2.2466325003152137
    -2.246636391598664    2.246636391598664    2.246636391598664
    -2.246636391598664    -2.246636391598664    2.246636391598664
 AtomData:  id type    cartes_x    cartes_y    cartes_z    fx    fy    fz
    1    0    0.0    0.0    0.0    0.0    0.0    0.0
 Energy
    -0.6830385276819015
 PlusStress:  xx          yy          zz          yz          xz          xy
     1.2248966144778197    1.2249382606295427    1.2248966144778197    4.164615172303209e-05    4.164615172303209e-05    -8.329230344606418e-05
 Feature EFS_by Qe
END_CFG

BEGIN_CFG
 Size
    1
 Supercell
    2.3127055776214296    2.3127055776214296    2.3127055776214296
    -2.3127095833468605    2.3127095833468605    2.3127095833468605
    -2.3127095833468605    -2.3127095833468605    2.3127095833468605
 AtomData:  id type    cartes_x    cartes_y    cartes_z    fx    fy    fz
    1    0    0.0    0.0    0.0    0.0    0.0    0.0
 Energy
    -0.7775159157308735
 PlusStress:  xx          yy          zz          yz          xz          xy
     0.9328079009158396    0.9328079009158396    0.9327624712221312    -0.0    4.542969370846149e-05    -9.085938741692298e-05
 Feature EFS_by Qe
END_CFG

BEGIN_CFG
 Size
    1
 Supercell
    2.378783848775509    2.378783848775509    2.378783848775509
    -2.3787879689519165    2.3787879689519165    2.3787879689519165
    -2.3787879689519165    -2.3787879689519165    2.3787879689519165
 AtomData:  id type    cartes_x    cartes_y    cartes_z    fx    fy    fz
    1    0    0.0    0.0    0.0    0.0    0.0    0.0
 Energy
    -0.8463746001793879
 PlusStress:  xx          yy          zz          yz          xz          xy
     0.6820690968856151    0.6821185329294569    0.6820690968856151    0.0    4.943604384182178e-05    -4.943604384182178e-05
 Feature EFS_by Qe
END_CFG

BEGIN_CFG
 Size
    1
 Supercell
    2.444862119929588    2.444862119929588    2.444862119929588
    -2.4448663545569715    2.4448663545569715    2.4448663545569715
    -2.4448663545569715    -2.4448663545569715    2.4448663545569715
 AtomData:  id type    cartes_x    cartes_y    cartes_z    fx    fy    fz
    1    0    0.0    0.0    0.0    0.0    0.0    0.0
 Energy
    -0.8942281354709394
 PlusStress:  xx          yy          zz          yz          xz          xy
     0.46715474343059926    0.46720841470167357    0.46715474343059926    -0.0    5.3671271074287605e-05    -5.3671271074287605e-05
 Feature EFS_by Qe
END_CFG

BEGIN_CFG
 Size
    1
 Supercell
    2.5109403910836674    2.5109403910836674    2.5109403910836674
    -2.510944740162027    2.510944740162027    2.510944740162027
    -2.510944740162027    -2.510944740162027    2.510944740162027
 AtomData:  id type    cartes_x    cartes_y    cartes_z    fx    fy    fz
    1    0    0.0    0.0    0.0    0.0    0.0    0.0
 Energy
    -0.9248840747952727
 PlusStress:  xx          yy          zz          yz          xz          xy
     0.28361537451883884    0.28361537451883884    0.28361537451883884    -0.0    0.0    -5.81417331936939e-05
 Feature EFS_by Qe
END_CFG

BEGIN_CFG
 Size
    1
 Supercell
    2.5770186622377467    2.5770186622377467    2.5770186622377467
    -2.577023125767082    2.577023125767082    2.577023125767082
    -2.577023125767082    -2.577023125767082    2.577023125767082
 AtomData:  id type    cartes_x    cartes_y    cartes_z    fx    fy    fz
    1    0    0.0    0.0    0.0    0.0    0.0    0.0
 Energy
    -0.9414934966537203
 PlusStress:  xx          yy          zz          yz          xz          xy
     0.12665038279556934    0.12665038279556934    0.12665038279556934    0.0    0.0    -6.285378798787561e-05
 Feature EFS_by Qe
END_CFG

BEGIN_CFG
 Size
    1
 Supercell
    2.643097238912288    2.643097238912288    2.643097238912288
    -2.6431018168931293    2.6431018168931293    2.6431018168931293
    -2.6431018168931293    -2.6431018168931293    2.6431018168931293
 AtomData:  id type    cartes_x    cartes_y    cartes_z    fx    fy    fz
    1    0    0.0    0.0    0.0    0.0    0.0    0.0
 Energy
    -0.946689646871846
 PlusStress:  xx          yy          zz          yz          xz          xy
     -0.007934216561017771    -0.007866402744256935    -0.007934216561017771    0.0    -0.0    -6.781381676083566e-05
 Feature EFS_by Qe
END_CFG

BEGIN_CFG
 Size
    1
 Supercell
    2.709170010698042    2.709170010698042    2.709170010698042
    -2.709170010698042    2.709174703120334    2.709174703120334
    -2.709174703120334    -2.709174703120334    2.709174703120334
 AtomData:  id type    cartes_x    cartes_y    cartes_z    fx    fy    fz
    1    0    0.0    0.0    0.0    0.0    0.0    0.0
 Energy
    -0.9425478018051763
 PlusStress:  xx          yy          zz          yz          xz          xy
     -0.12268640747207918    -0.12268640747207918    -0.12268640747207918    0.0    0.0    -7.302762349528523e-05
 Feature EFS_by Qe
END_CFG

BEGIN_CFG
 Size
    1
 Supercell
    2.7752485873725834    2.7752485873725834    2.7752485873725834
    -2.7752485873725834    2.7752533942463815    2.7752533942463815
    -2.7752533942463815    -2.7752533942463815    2.7752533942463815
 AtomData:  id type    cartes_x    cartes_y    cartes_z    fx    fy    fz
    1    0    0.0    0.0    0.0    0.0    0.0    0.0
 Energy
    -0.9308920767155087
 PlusStress:  xx          yy          zz          yz          xz          xy
     -0.22074932100619826    -0.22074932100619826    -0.22074932100619826    0.0    0.0    -7.850260348726823e-05
 Feature EFS_by Qe
END_CFG

BEGIN_CFG
 Size
    1
 Supercell
    2.8413268585266627    2.8413268585266627    2.8413268585266627
    -2.8413268585266627    2.8413317798514366    2.8413317798514366
    -2.8413317798514366    -2.8413317798514366    2.8413317798514366
 AtomData:  id type    cartes_x    cartes_y    cartes_z    fx    fy    fz
    1    0    0.0    0.0    0.0    0.0    0.0    0.0
 Energy
    -0.9131299805449089
 PlusStress:  xx          yy          zz          yz          xz          xy
     -0.30420718523082124    -0.30429142981271845    -0.30429142981271845    0.0    0.0    -8.424458189720887e-05
 Feature EFS_by Qe
END_CFG

BEGIN_CFG
 Size
    1
 Supercell
    2.907409565022925    2.90741460081508    2.907419636607235
    -2.90742467239939    2.9074297081915454    2.907434743983701
    -2.907444815568011    -2.907449851360166    2.9074548871523214
 AtomData:  id type    cartes_x    cartes_y    cartes_z    fx    fy    fz
    1    0    0.0    0.0    0.0    0.0    0.0    0.0
 Energy
    -0.8905185432711278
 PlusStress:  xx          yy          zz          yz          xz          xy
     -0.37503924225512564    -0.37503924225512564    -0.37503924225512564    -0.0    0.0    -0.0
 Feature EFS_by Qe
END_CFG

BEGIN_CFG
 Size
    1
 Supercell
    2.9734834008348208    2.9734834008348208    2.9734834008348208
    -2.9734834008348208    2.9734885510615476    2.9734885510615476
    -2.9734885510615476    -2.9734885510615476    2.9734885510615476
 AtomData:  id type    cartes_x    cartes_y    cartes_z    fx    fy    fz
    1    0    0.0    0.0    0.0    0.0    0.0    0.0
 Energy
    -0.8640258099517268
 PlusStress:  xx          yy          zz          yz          xz          xy
     -0.43527011680375505    -0.4351735617645351    -0.43527011680375505    0.0    0.0    -9.65550392199989e-05
 Feature EFS_by Qe
END_CFG

BEGIN_CFG
 Size
    1
 Supercell
    3.039556478141037    3.039556478141037    3.039556478141037
    -3.039556478141037    3.039561742809744    3.039561742809744
    -3.039561742809744    -3.039561742809744    3.039561742809744
 AtomData:  id type    cartes_x    cartes_y    cartes_z    fx    fy    fz
    1    0    0.0    0.0    0.0    0.0    0.0    0.0
 Energy
    -0.8345439058773536
 PlusStress:  xx          yy          zz          yz          xz          xy
     -0.48545976341905056    -0.48545976341905056    -0.48545976341905056    0.0    -0.0    -0.00010313570499661155
 Feature EFS_by Qe
END_CFG

BEGIN_CFG
 Size
    1
 Supercell
    3.105638841293366    3.105644220429454    3.1056495995655418
    -3.1056549787016303    3.1056603578377184    3.1056657369738065
    -3.105671116109894    -3.1056764952459823    3.105681874382071
 AtomData:  id type    cartes_x    cartes_y    cartes_z    fx    fy    fz
    1    0    0.0    0.0    0.0    0.0    0.0    0.0
 Energy
    -0.8027298499639528
 PlusStress:  xx          yy          zz          yz          xz          xy
     -0.527396406422512    -0.5272863946564664    -0.527396406422512    -0.0    0.0    -0.0
 Feature EFS_by Qe
END_CFG

BEGIN_CFG
 Size
    1
 Supercell
    3.1717130204491957    3.1717130204491957    3.1717130204491957
    -3.1717130204491957    3.171718514019855    3.171718514019855
    -3.171718514019855    -3.171718514019855    3.171718514019855
 AtomData:  id type    cartes_x    cartes_y    cartes_z    fx    fy    fz
    1    0    0.0    0.0    0.0    0.0    0.0    0.0
 Energy
    -0.7692583485277282
 PlusStress:  xx          yy          zz          yz          xz          xy
     -0.5622381205677549    -0.5622381205677549    -0.5622381205677549    0.0    -0.0    -0.0001171817675214162
 Feature EFS_by Qe
END_CFG

BEGIN_CFG
 Size
    1
 Supercell
    3.237791597123737    3.237791597123737    3.237791597123737
    -3.237791597123737    3.237797205145902    3.237797205145902
    -3.237797205145902    -3.237797205145902    3.237797205145902
 AtomData:  id type    cartes_x    cartes_y    cartes_z    fx    fy    fz
    1    0    0.0    0.0    0.0    0.0    0.0    0.0
 Energy
    -0.734561518378996
 PlusStress:  xx          yy          zz          yz          xz          xy
     -0.590262302371082    -0.590262302371082    -0.590262302371082    -0.0    0.0    -0.0
 Feature EFS_by Qe
END_CFG

BEGIN_CFG
 Size
    1
 Supercell
    3.3038698682778165    3.3038698682778165    3.3038698682778165
    -3.3038698682778165    3.3038755907509576    3.3038755907509576
    -3.3038755907509576    -3.3038755907509576    3.3038755907509576
 AtomData:  id type    cartes_x    cartes_y    cartes_z    fx    fy    fz
    1    0    0.0    0.0    0.0    0.0    0.0    0.0
 Energy
    -0.6990699797011075
 PlusStress:  xx          yy          zz          yz          xz          xy
     -0.6127069648458908    -0.6125745163018256    -0.6127069648458908    -0.0    0.0    0.0
 Feature EFS_by Qe
END_CFG

BEGIN_CFG
 Size
    54
 Supercell
    15.699984031739117    0.0    0.0
    0.0    15.699984031739117    0.0
    0.0    0.0    15.699984031739117
 AtomData:  id type    cartes_x    cartes_y    cartes_z    fx    fy    fz
    1    0    0.00028730970778082583    1.5699984031739116e-06    0.00015699984031739117    0.0017848599487105832    -0.0002871922447003344    -0.0006430329489664605
    2    0    2.6162783090154726    2.6169518383304347    2.6163505289420192    -3.11103505897408e-05    -0.002162040810819259    0.0012225596450761774
    3    0    5.232952257628545    -0.00021822977804117374    -3.767996167617388e-05    -0.0022242615119987402    0.00014089646382791697    -0.0003918361512294625
    4    0    7.8498554260084825    2.616829378454987    2.616496538793514    -0.0022890533165327463    -0.000846150113973859    0.0005946962059014087
    5    0    10.46695641418722    -0.00012088987704439121    -9.262990578726079e-05    0.0003190739262964324    0.0003165028229419084    0.00020697382003918459
    6    0    13.08318448325379    2.616931428351193    2.6167979784869235    0.0028318132346727694    -0.0006427758386310081    0.00014398178785334582
    7    0    0.0004505895417109126    5.2333714472021935    -0.00037051962314904314    0.0004332309152372994    -0.0016586187740034533    0.0006818566096197734
    8    0    5.233024477555092    5.233448377123949    0.0001617098355269129    -0.0014899543939466766    -0.002043512946175701    0.0001828054485066587
    9    0    10.466910884233524    5.233321207253292    -0.00012873986906026074    0.0004427439976490384    -0.0010194424800687787    0.0008479498863220258
    10    0    2.6164824088078853    7.849668596198504    2.616185679109686    -9.950169982008005e-05    -6.402047352764841e-05    0.0013583139021950464
    11    0    0.00046000953212995614    10.466312714841917    0.0002716097237490867    0.002551820079365102    0.00199954707881334    -0.0006489464866818657
    12    0    5.233074717503993    10.466741324405984    -0.0002810297141681302    -0.002046855380536582    0.0016449919262244758    -0.00021134469574187544
    13    0    7.849668596198504    7.849772216093114    2.6165781787104794    -0.0018884754138979018    -0.0009626210959337977    0.0009662206406301314
    14    0    10.466615724533728    10.466706784441113    0.0004914095001934344    0.0004885096373595661    0.00010875767189636658    -0.0006589737897645095
    15    0    13.083840742586316    7.849957475904689    2.6167775685076826    0.0021018769923233965    -0.0015817427837031845    0.0006003526332813616
    16    0    2.6171967580813296    13.083208033229837    2.617072728207479    -0.0006288918805165783    0.0024003820917836366    0.0007227371529567054
    17    0    7.850472435380929    13.083478072955183    2.616262609031441    -0.0026965731982248053    0.0019342410536084295    0.000350698497557078
    18    0    13.083162503276144    13.083608382822648    2.616427458863775    0.003178397966862609    0.0018164845199712288    0.0004841387616568754
    19    0    -0.00023863975728243456    0.0005385094522886517    5.2330652975135745    0.002415808711910781    -0.00013601136745432132    0.0010402684172404234
    20    0    5.2331971773794415    -1.2559987225391293e-05    5.233536297034527    -0.002753137472024334    0.0005098497952021156    0.0008019271362760456
    21    0    10.467133824006776    0.00014443985309199988    5.233658756909974    5.7849825476790724e-05    0.0005934106542241466    0.00025428212176242684
    22    0    7.064992814282602e-05    5.233702716865263    5.23300877757106    0.0018046574445404182    -0.0021867234030226892    0.0007816154197753058
    23    0    5.233129667448106    5.2329962175838345    5.233040177539124    -0.002741824617264428    -0.0017054128550557906    0.0009999020945743963
    24    0    10.46693757420638    5.233140657436926    5.2335614170089775    0.0003363003187717434    -0.00043245958423094227    0.0002658520868577849
    25    0    -0.0002637597317332171    10.466827674318157    5.233729406838117    0.0026405231450961813    0.0014768417668386041    0.0012824663532365872
    26    0    5.2331233874544925    10.466323704830739    5.233732546834924    -0.00270994293566833    0.0012109896799808193    0.0013482865991124027
    27    0    10.467061604080232    10.466617294532133    5.2328486377339365    0.0003080181818719791    -0.0004494288663708008    0.001468357125768675
    28    0    2.6164635688270472    2.616518518771159    7.850028125832831    -0.00031290327824557476    -0.0012400431478869407    -0.0004077769920275115
    29    0    -0.00018211981476817376    1.883998083808694e-05    10.466890474254285    0.0027564799063852148    -0.00033501476709448143    -0.0007435630901283501
    30    0    5.233085707492815    0.0005432194474981734    10.466232644923354    -0.0023795561546119917    0.0001987462893047077    -0.00046871214152973106
    31    0    7.849853856010079    2.616785418499698    7.850345265510272    -0.002938771134220969    -0.0011770511157011018    0.0007417633177801832
    32    0    10.466399064754091    0.00033440965987604316    10.467158943981229    -6.762001822398204e-05    0.0002853924723521676    -0.0009729055093518938
    33    0    13.083124823314469    2.616477698812676    7.849558696310282    0.003214393413825945    -0.0009456518137939391    0.0002884777963775964
    34    0    0.00021194978442847805    5.233547287023349    10.466851224294206    0.0009258543179641042    -0.002389840568030088    -0.0011839930947583168
    35    0    5.232963247617368    5.2337827867838245    10.466194964961678    -0.0010428395205949474    -0.002683460571116733    -0.0007641319169645424
    36    0    10.466474424677443    5.233027617551898    10.46678371436287    0.00018589077253208753    -0.0011806506603974356    -0.0015735152529687078
    37    0    2.6166629586242505    7.849993585867961    7.850202395655584    -0.0002982479891247878    0.000679028395929797    -0.001358828122865951
    38    0    -0.0001617098355269129    10.466301724853095    10.46649169465988    0.0015362342543281094    0.0022345459254168366    -0.00033681453944264827
    39    0    5.233360457213371    10.4663551047988    10.467133824006776    -0.001895417392955117    0.0019370692672984059    -0.0008440932312902399
    40    0    7.84987426598932    7.8501552957034875    7.84971098615539    -0.001031783776170494    -0.0006463753833273417    -0.0003684391107032938
    41    0    10.466493264658283    10.466215374940921    10.466267184888226    0.0006967690090760128    0.0015485755504298245    -0.0009142843528687459
    42    0    13.083137383301695    7.849910375952594    7.8498915359717545    0.001484555076902176    -0.0004486575353644436    7.481910761664935e-05
    43    0    2.616620568667365    13.083029053411876    7.850095635764167    -0.000522191091303831    0.0017766324179761062    0.0003810375171404616
    44    0    7.849998295863171    13.083209603228239    7.8498130360515965    -0.0028492967374835324    0.0014578156020151264    0.0007114242981967997
    45    0    13.083751252677336    13.08310598333363    7.8502604855965    0.002887606177465941    0.001124086386597907    0.0007816154197753058
    46    0    2.6162186490761523    2.6168701984134697    13.08286734357635    5.090784641957584e-05    -0.0014470169679261255    -0.00024399770834433068
    47    0    7.850312295543806    2.6165389287504    13.083578552852988    -0.002725883776466379    -0.0011755084536883877    -0.0013991944455319784
    48    0    13.083454522979135    2.616620568667365    13.083790502637415    0.0029084321146375853    -0.0016637609807125012    -0.0005265619670065218
    49    0    2.616617428670559    7.849615216252796    13.083796782631028    -0.0006211785704530062    0.0014297905754508144    -0.0004895380787013758
    50    0    7.850321715534226    7.850306015550194    13.083655482774741    -0.001843481105193731    -0.00022085777815361438    -0.0007520477311982794
    51    0    13.08332892310688    7.850133315725845    13.083019633421456    0.0019776927002998854    -0.0002625096524969037    -0.0006193787981048395
    52    0    2.617066448213866    13.083534592897697    13.082948983493315    -0.0008554060860501455    0.0018483662015673268    -0.0007471626348246837
    53    0    7.850246355610873    13.083146803292113    13.083189193249    -0.0025381932315861246    0.001692814448618623    -0.0012130465626644384
    54    0    13.082919153523655    13.083322643113267    13.083586402845002    0.003201795007388778    0.0016287939750909742    -0.0011040317804326195
 Energy
    -51.378368528647115
 PlusStress:  xx          yy          zz          yz          xz          xy
     2.469446980959238    2.469446980959238    2.469446980959238    -0.0    0.0    -0.0
 Feature EFS_by Qe
END_CFG

BEGIN_CFG
 Size
    54
 Supercell
    16.334326746067152    0.0    0.0
    0.0    16.334326746067152    0.0
    0.0    0.0    16.334326746067152
 AtomData:  id type    cartes_x    cartes_y    cartes_z    fx    fy    fz
    1    0    0.0002874841507307819    1.6334326746067153e-06    0.00015680953676224467    0.0016971853243213139    -0.00023345618459078214    -0.0009212263319259608
    2    0    2.722002845377543    2.722675819639481    2.722074716415226    -5.6564273799528715e-06    -0.002431235332037925    0.0012503275613050368
    3    0    5.444399348029667    -0.00021887997839729984    -3.756895151595445e-05    -0.001985406010363458    -0.00019386119293111204    -0.0006952263470632983
    4    0    8.16702616468891    2.722553312188886    2.722220091923266    -0.002184409410003618    -0.0012624117470713    0.0006458611626564369
    5    0    10.889852260134454    -0.00012087401792089693    -9.147222977797605e-05    0.0003167599332773608    -6.916268023669648e-05    5.270761876774266e-05
    6    0    13.61180283566641    2.7226562184473857    2.722522276968068    0.0026050419188037494    -0.001306377614433661    0.00014603867053696504
    7    0    0.0004491939855168467    5.444819140227041    -0.00037078921713572433    0.0009513082411738919    -0.0018414242225101118    6.22207011794816e-05
    8    0    5.444472852500024    5.444895911562747    0.0001617098347860648    -0.0018270260437247773    -0.0019733218245971944    -0.00014501022919515544
    9    0    10.889806524019566    5.444768503814128    -0.0001274077486193238    0.00040186345431210624    -0.0010834629535964272    0.000476939672264208
    10    0    2.722207024461869    8.16683831993133    2.72190973971509    5.7078494470433516e-05    0.0    0.0013881387011075253
    11    0    0.0004606280142390937    10.889207054227985    0.00027114982398471476    0.002569560692511318    0.0019386119293111205    -0.000765160358306352
    12    0    5.444520222047587    10.889636647021407    -0.00028095042003235506    -0.002018059022965913    0.0017550351497981043    -0.00043683045993363315
    13    0    8.166839953364004    8.166942859622505    2.722301763556996    -0.0020807939448162995    -0.0004376017909399903    0.0010536381546839483
    14    0    10.889510872705463    10.889600711502565    0.0004916632350566213    0.00012212740933989152    0.0007268509183239438    -0.0006602593414417715
    15    0    13.612459475601602    8.167129070947409    2.722502675775973    0.002066395766030965    -0.0011371990137059795    0.0006859703749870118
    16    0    2.722920834540672    13.611827337156528    2.722796693657402    -0.0003900363788812957    0.0024435766281396404    0.0008885733193235056
    17    0    8.16764360223991    13.612096853547838    2.721986511050797    -0.0023628439828075856    0.0019000453789932595    0.0004255176051737273
    18    0    13.61178160104164    13.612227528161808    2.7221514877509323    0.0025302228111871    0.001837053346807421    0.0005674425103434539
    19    0    -0.00023848117049258044    0.0005390327826202161    5.444513688316889    0.002428921339018853    -0.00023397040526168693    0.0014045937625764787
    20    0    5.444644362930857    -1.1434028722247006e-05    5.444984116927175    -0.0027708780851705495    0.0002789647139658575    0.0011305141449842171
    21    0    10.890028670863312    0.00014374207536539094    5.445106624377772    5.322183943864747e-05    0.0003090466232137887    0.0005656427379952872
    22    0    7.023760500808877e-05    5.445149093627311    5.444456518173278    0.0019118724544240704    -0.00211293273674785    0.0011228008349206447
    23    0    5.444577392191198    5.444443450711882    5.444487553394095    -0.0026235538629563225    -0.0016617040980288818    0.001506666565751083
    24    0    10.889832658942359    5.444588826219921    5.445008618417296    0.00013806825013794053    -0.00033835720145536266    0.0009592786615729165
    25    0    -0.0002646160932862879    10.889721585520487    5.445176861982779    0.0027395106242453565    0.0017918019277677983    0.001593312748798543
    26    0    5.444572491893174    10.889220121689382    5.445180128848128    -0.002609669904841893    0.001366284322594071    0.0017730328732797726
    27    0    10.88995679982563    10.889512506138136    5.444296441771166    2.8282136899764357e-06    3.393856427971723e-05    0.001845280877541898
    28    0    2.722187423269774    2.7222413265480356    8.167199308552417    -5.733560480588592e-05    -0.0016511625742753337    -5.9906708160409957e-05
    29    0    -0.0001813110268813454    1.9601192095280584e-05    10.889785289394794    0.002924372955435635    -0.0003452991805125775    -0.0006481751556755086
    30    0    5.444533289508985    0.0005439330806440362    10.88912701602693    -0.002348960024693156    0.00036381112466515056    -0.0005828691304705982
    31    0    8.167024531256235    2.7225092095066707    8.167517827923966    -0.002802502656431195    -0.0012243594174243444    0.0011135448628443582
    32    0    10.88929362615974    0.00033485369829437667    10.890053172353431    -0.00027613650027588106    0.0003987781302866774    -0.0009286825316540805
    33    0    13.611744032090124    2.7222004907311703    8.166730513374805    0.0030200180002239287    -0.0012171603280316768    0.0004697405828715407
    34    0    0.00021234624769887297    5.444995550955898    10.889746087010606    0.0010515812720003292    -0.0025698178028467702    -0.0010004163152453008
    35    0    5.444410782058389    5.4452307652610425    10.889089447075412    -0.0010101865079924922    -0.0026520931101915394    -0.0008160682047259278
    36    0    10.889370397495444    5.444474485932699    10.889677482838271    5.373606010955227e-05    -0.0012829805739074922    -0.001725467461221078
    37    0    2.7223867020560757    8.167166639898927    8.167372452415927    -3.3167233273360016e-05    0.000701396995114156    -0.001117658628211597
    38    0    -0.0001617098347860648    10.889195620199263    10.889386731822192    0.0015125801034664881    0.002622525421614513    -0.0005800409167806218
    39    0    5.444809339630993    10.889249523477526    10.890028670863312    -0.0017331807712846498    0.0021944367130862616    -0.0009186552285714367
    40    0    8.167045765881005    8.167328349733712    8.166882422613545    -0.0011302570346487647    -0.000540703035456404    -0.0002787076036304051
    41    0    10.889388365254865    10.889110681700183    10.889161318113095    0.00045559951442165854    0.0015956267418176144    -0.0011623958265803151
    42    0    13.611755466118845    8.167081701399846    8.167062100207751    0.001279123918875706    -0.0001920614205829452    0.0002632809835032609
    43    0    2.722344232806536    13.611647659562323    8.167266279292077    -0.00030493285784655025    0.0016912717866059083    0.0004126620884011072
    44    0    8.167171540196948    13.611827337156528    8.16698369543937    -0.002759565230410644    0.0015683730462596596    0.0007394493247611117
    45    0    13.6123696368045    13.611724430898027    8.167432889424886    0.0028372125517172695    0.0011690806953020775    0.0008523207620247167
    46    0    2.7219424083685824    2.7225941480057507    13.611487583160212    6.582024587581522e-05    -0.0018162274096357764    -0.000696254788405108
    47    0    8.167483525837799    2.7222625611728057    13.61219649294099    -0.002575474230226723    -0.0015004959177002252    -0.0019165004404622136
    48    0    13.612073985490396    2.722344232806536    13.612408839188689    0.002916659645372062    -0.0019149577784494996    -0.0008528349826956216
    49    0    2.722340965941187    8.166786050085742    13.612415372919386    -0.000531189953044665    0.001211503900651724    -0.0005810693581224314
    50    0    8.167493326433847    8.167478625539777    13.612274897709371    -0.002026543664035842    -2.236859918435908e-05    -0.0011734515710047683
    51    0    13.611948211174449    8.167305481676268    13.611637858966274    0.001969208059229956    -0.00031341749891647955    -0.000981904371092728
    52    0    2.7227901599267033    13.612152390258776    13.611567621361267    -0.0007150238428931334    0.0018900180759106162    -0.0009937314465235385