BEGIN_CFG
 Size
    1
 Supercell
    1.9823191101784348    1.9823191101784348    1.9823191101784348
    -1.9823225436574508    1.9823225436574508    1.9823225436574508
    -1.9823225436574508    -1.9823225436574508    1.9823225436574508
 AtomData:  id type    cartes_x    cartes_y    cartes_z    fx    fy    fz
    1    0    0.0    0.0    0.0    0.0    0.0    0.0
 Energy
    0.0648883223636858
 PlusStress:  xx          yy          zz          yz          xz          xy
     2.8022022344070985    2.8022594519842956    2.8021736256185004    -2.8608788598220495e-05    2.8608788598220495e-05    2.8608788598220495e-05
 Feature EFS_by Qe
END_CFG

BEGIN_CFG
 Size
    1
 Supercell
    2.0483973813325136    2.0483973813325136    2.0483973813325136
    -2.048400929262506    2.048400929262506    2.048400929262506
    -2.048400929262506    -2.048400929262506    2.048400929262506
 AtomData:  id type    cartes_x    cartes_y    cartes_z    fx    fy    fz
    1    0    0.0    0.0    0.0    0.0    0.0    0.0
 Energy
    -0.18972589552777208
 PlusStress:  xx          yy          zz          yz          xz          xy
     2.353855075967846    2.353886642102245    2.353855075967846    -3.15661343985818e-05    3.15661343985818e-05    -0.0
 Feature EFS_by Qe
END_CFG

BEGIN_CFG
 Size
    1
 Supercell
    2.114475652486593    2.114475652486593    2.114475652486593
    -2.1144793148675616    2.1144793148675616    2.1144793148675616
    -2.1144793148675616    -2.1144793148675616    2.1144793148675616
 AtomData:  id type    cartes_x    cartes_y    cartes_z    fx    fy    fz
    1    0    0.0    0.0    0.0    0.0    0.0    0.0
 Energy
    -0.3951077771976088
 PlusStress:  xx          yy          zz          yz          xz          xy
     1.9396298570749564    1.9396992982126149    1.939595136506127    -0.0    0.0    -3.472056882920944e-05
 Feature EFS_by Qe
END_CFG

BEGIN_CFG
 Size
    1
 Supercell
    2.1805542291611344    2.1805542291611344    2.1805542291611344
    -2.1805580059936087    2.1805580059936087    2.1805580059936087
    -2.1805580059936087    -2.1805580059936087    2.1805580059936087
 AtomData:  id type    cartes_x    cartes_y    cartes_z    fx    fy    fz
    1    0    0.0    0.0    0.0    0.0    0.0    0.0
 Energy
    -0.5575562142830677
 PlusStress:  xx          yy          zz          yz          xz          xy
     1.5613313284252743    1.5613313284252743    1.5612932499595906    -7.615693136723042e-05    3.807846568361521e-05    -7.615693136723042e-05
 Feature EFS_by Qe
END_CFG

BEGIN_CFG
 Size
    1
 Supercell
    2.2466325003152137    2.2466325003152137    2.2466325003152137
    -2.246636391598664    2.246636391598664    2.246636391598664
    -2.246636391598664    -2.246636391598664    2.246636391598664
 AtomData:  id type    cartes_x    cartes_y    cartes_z    fx    fy    fz
    1    0    0.0    0.0    0.0    0.0    0.0    0.0
 Energy
    -0.6830385276819015
 PlusStress:  xx          yy          zz          yz          xz          xy
     1.2248966144778197    1.2249382606295427    1.2248966144778197    4.164615172303209e-05    4.164615172303209e-05    -8.329230344606418e-05
 Feature EFS_by Qe
END_CFG

BEGIN_CFG
 Size
    1
 Supercell
    2.3127055776214296    2.3127055776214296    2.3127055776214296
    -2.3127095833468605    2.3127095833468605    2.3127095833468605
    -2.3127095833468605    -2.3127095833468605    2.3127095833468605
 AtomData:  id type    cartes_x    cartes_y    cartes_z    fx    fy    fz
    1    0    0.0    0.0    0.0    0.0    0.0    0.0
 Energy
    -0.7775159157308735
 PlusStress:  xx          yy          zz          yz          xz          xy
     0.9328079009158396    0.9328079009158396    0.9327624712221312    -0.0    4.542969370846149e-05    -9.085938741692298e-05
 Feature EFS_by Qe
END_CFG

BEGIN_CFG
 Size
    1
 Supercell
    2.378783848775509    2.378783848775509    2.378783848775509
    -2.3787879689519165    2.3787879689519165    2.3787879689519165
    -2.3787879689519165    -2.3787879689519165    2.3787879689519165
 AtomData:  id type    cartes_x    cartes_y    cartes_z    fx    fy    fz
    1    0    0.0    0.0    0.0    0.0    0.0    0.0
 Energy
    -0.8463746001793879
 PlusStress:  xx          yy          zz          yz          xz          xy
     0.6820690968856151    0.6821185329294569    0.6820690968856151    0.0    4.943604384182178e-05    -4.943604384182178e-05
 Feature EFS_by Qe
END_CFG

BEGIN_CFG
 Size
    1
 Supercell
    2.444862119929588    2.444862119929588    2.444862119929588
    -2.4448663545569715    2.4448663545569715    2.4448663545569715
    -2.4448663545569715    -2.4448663545569715    2.4448663545569715
 AtomData:  id type    cartes_x    cartes_y    cartes_z    fx    fy    fz
    1    0    0.0    0.0    0.0    0.0    0.0    0.0
 Energy
    -0.8942281354709394
 PlusStress:  xx          yy          zz          yz          xz          xy
     0.46715474343059926    0.46720841470167357    0.46715474343059926    -0.0    5.3671271074287605e-05    -5.3671271074287605e-05
 Feature EFS_by Qe
END_CFG

BEGIN_CFG
 Size
    1
 Supercell
    2.5109403910836674    2.5109403910836674    2.5109403910836674
    -2.510944740162027    2.510944740162027    2.510944740162027
    -2.510944740162027    -2.510944740162027    2.510944740162027
 AtomData:  id type    cartes_x    cartes_y    cartes_z    fx    fy    fz
    1    0    0.0    0.0    0.0    0.0    0.0    0.0
 Energy
    -0.9248840747952727
 PlusStress:  xx          yy          zz          yz          xz          xy
     0.28361537451883884    0.28361537451883884    0.28361537451883884    -0.0    0.0    -5.81417331936939e-05
 Feature EFS_by Qe
END_CFG

BEGIN_CFG
 Size
    1
 Supercell
    2.5770186622377467    2.5770186622377467    2.5770186622377467
    -2.577023125767082    2.577023125767082    2.577023125767082
    -2.577023125767082    -2.577023125767082    2.577023125767082
 AtomData:  id type    cartes_x    cartes_y    cartes_z    fx    fy    fz
    1    0    0.0    0.0    0.0    0.0    0.0    0.0
 Energy
    -0.9414934966537203
 PlusStress:  xx          yy          zz          yz          xz          xy
     0.12665038279556934    0.12665038279556934    0.12665038279556934    0.0    0.0    -6.285378798787561e-05
 Feature EFS_by Qe
END_CFG

BEGIN_CFG
 Size
    1
 Supercell
    2.643097238912288    2.643097238912288    2.643097238912288
    -2.6431018168931293    2.6431018168931293    2.6431018168931293
    -2.6431018168931293    -2.6431018168931293    2.6431018168931293
 AtomData:  id type    cartes_x    cartes_y    cartes_z    fx    fy    fz
    1    0    0.0    0.0    0.0    0.0    0.0    0.0
 Energy
    -0.946689646871846
 PlusStress:  xx          yy          zz          yz          xz          xy
     -0.007934216561017771    -0.007866402744256935    -0.007934216561017771    0.0    -0.0    -6.781381676083566e-05
 Feature EFS_by Qe
END_CFG

BEGIN_CFG
 Size
    1
 Supercell
    2.709170010698042    2.709170010698042    2.709170010698042
    -2.709170010698042    2.709174703120334    2.709174703120334
    -2.709174703120334    -2.709174703120334    2.709174703120334
 AtomData:  id type    cartes_x    cartes_y    cartes_z    fx    fy    fz
    1    0    0.0    0.0    0.0    0.0    0.0    0.0
 Energy
    -0.9425478018051763
 PlusStress:  xx          yy          zz          yz          xz          xy
     -0.12268640747207918    -0.12268640747207918    -0.12268640747207918    0.0    0.0    -7.302762349528523e-05
 Feature EFS_by Qe
END_CFG

BEGIN_CFG
 Size
    1
 Supercell
    2.7752485873725834    2.7752485873725834    2.7752485873725834
    -2.7752485873725834    2.7752533942463815    2.7752533942463815
    -2.7752533942463815    -2.7752533942463815    2.7752533942463815
 AtomData:  id type    cartes_x    cartes_y    cartes_z    fx    fy    fz
    1    0    0.0    0.0    0.0    0.0    0.0    0.0
 Energy
    -0.9308920767155087
 PlusStress:  xx          yy          zz          yz          xz          xy
     -0.22074932100619826    -0.22074932100619826    -0.22074932100619826    0.0    0.0    -7.850260348726823e-05
 Feature EFS_by Qe
END_CFG

BEGIN_CFG
 Size
    1
 Supercell
    2.8413268585266627    2.8413268585266627    2.8413268585266627
    -2.8413268585266627    2.8413317798514366    2.8413317798514366
    -2.8413317798514366    -2.8413317798514366    2.8413317798514366
 AtomData:  id type    cartes_x    cartes_y    cartes_z    fx    fy    fz
    1    0    0.0    0.0    0.0    0.0    0.0    0.0
 Energy
    -0.9131299805449089
 PlusStress:  xx          yy          zz          yz          xz          xy
     -0.30420718523082124    -0.30429142981271845    -0.30429142981271845    0.0    0.0    -8.424458189720887e-05
 Feature EFS_by Qe
END_CFG

BEGIN_CFG
 Size
    1
 Supercell
    2.907409565022925    2.90741460081508    2.907419636607235
    -2.90742467239939    2.9074297081915454    2.907434743983701
    -2.907444815568011    -2.907449851360166    2.9074548871523214
 AtomData:  id type    cartes_x    cartes_y    cartes_z    fx    fy    fz
    1    0    0.0    0.0    0.0    0.0    0.0    0.0
 Energy
    -0.8905185432711278
 PlusStress:  xx          yy          zz          yz          xz          xy
     -0.37503924225512564    -0.37503924225512564    -0.37503924225512564    -0.0    0.0    -0.0
 Feature EFS_by Qe
END_CFG

BEGIN_CFG
 Size
    1
 Supercell
    2.9734834008348208    2.9734834008348208    2.9734834008348208
    -2.9734834008348208    2.9734885510615476    2.9734885510615476
    -2.9734885510615476    -2.9734885510615476    2.9734885510615476
 AtomData:  id type    cartes_x    cartes_y    cartes_z    fx    fy    fz
    1    0    0.0    0.0    0.0    0.0    0.0    0.0
 Energy
    -0.8640258099517268
 PlusStress:  xx          yy          zz          yz          xz          xy
     -0.43527011680375505    -0.4351735617645351    -0.43527011680375505    0.0    0.0    -9.65550392199989e-05
 Feature EFS_by Qe
END_CFG

BEGIN_CFG
 Size
    1
 Supercell
    3.039556478141037    3.039556478141037    3.039556478141037
    -3.039556478141037    3.039561742809744    3.039561742809744
    -3.039561742809744    -3.039561742809744    3.039561742809744
 AtomData:  id type    cartes_x    cartes_y    cartes_z    fx    fy    fz
    1    0    0.0    0.0    0.0    0.0    0.0    0.0
 Energy
    -0.8345439058773536
 PlusStress:  xx          yy          zz          yz          xz          xy
     -0.48545976341905056    -0.48545976341905056    -0.48545976341905056    0.0    -0.0    -0.00010313570499661155
 Feature EFS_by Qe
END_CFG

BEGIN_CFG
 Size
    1
 Supercell
    3.105638841293366    3.105644220429454    3.1056495995655418
    -3.1056549787016303    3.1056603578377184    3.1056657369738065
    -3.105671116109894    -3.1056764952459823    3.105681874382071
 AtomData:  id type    cartes_x    cartes_y    cartes_z    fx    fy    fz
    1    0    0.0    0.0    0.0    0.0    0.0    0.0
 Energy
    -0.8027298499639528
 PlusStress:  xx          yy          zz          yz          xz          xy
     -0.527396406422512    -0.5272863946564664    -0.527396406422512    -0.0    0.0    -0.0
 Feature EFS_by Qe
END_CFG

BEGIN_CFG
 Size
    1
 Supercell
    3.1717130204491957    3.1717130204491957    3.1717130204491957
    -3.1717130204491957    3.171718514019855    3.171718514019855
    -3.171718514019855    -3.171718514019855    3.171718514019855
 AtomData:  id type    cartes_x    cartes_y    cartes_z    fx    fy    fz
    1    0    0.0    0.0    0.0    0.0    0.0    0.0
 Energy
    -0.7692583485277282
 PlusStress:  xx          yy          zz          yz          xz          xy
     -0.5622381205677549    -0.5622381205677549    -0.5622381205677549    0.0    -0.0    -0.0001171817675214162
 Feature EFS_by Qe
END_CFG

BEGIN_CFG
 Size
    1
 Supercell
    3.237791597123737    3.237791597123737    3.237791597123737
    -3.237791597123737    3.237797205145902    3.237797205145902
    -3.237797205145902    -3.237797205145902    3.237797205145902
 AtomData:  id type    cartes_x    cartes_y    cartes_z    fx    fy    fz
    1    0    0.0    0.0    0.0    0.0    0.0    0.0
 Energy
    -0.734561518378996
 PlusStress:  xx          yy          zz          yz          xz          xy
     -0.590262302371082    -0.590262302371082    -0.590262302371082    -0.0    0.0    -0.0
 Feature EFS_by Qe
END_CFG

BEGIN_CFG
 Size
    1
 Supercell
    3.3038698682778165    3.3038698682778165    3.3038698682778165
    -3.3038698682778165    3.3038755907509576    3.3038755907509576
    -3.3038755907509576    -3.3038755907509576    3.3038755907509576
 AtomData:  id type    cartes_x    cartes_y    cartes_z    fx    fy    fz
    1    0    0.0    0.0    0.0    0.0    0.0    0.0
 Energy
    -0.6990699797011075
 PlusStress:  xx          yy          zz          yz          xz          xy
     -0.6127069648458908    -0.6125745163018256    -0.6127069648458908    -0.0    0.0    0.0
 Feature EFS_by Qe
END_CFG

BEGIN_CFG
 Size
    2
 Supercell
    5.021881144706641    0.0    0.0
    0.0    5.021881144706641    0.0
    0.0    0.0    5.021881144706641
 AtomData:  id type    cartes_x    cartes_y    cartes_z    fx    fy    fz
    1    0    0.0    0.0    0.0    0.0    0.0    0.0
    2    0    2.510940070165206    2.510940070165206    2.510940070165206    0.0    0.0    0.0
 Energy
    -1.859581799903026
 PlusStress:  xx          yy          zz          yz          xz          xy
     0.5604844877971905    0.5604844877971905    0.5604844877971905    0.0    0.0    0.0
 Feature EFS_by Qe
END_CFG

BEGIN_CFG
 Size
    2
 Supercell
    5.444775758414788    0.0    0.0
    0.0    5.444775758414788    0.0
    0.0    0.0    5.444775758414788
 AtomData:  id type    cartes_x    cartes_y    cartes_z    fx    fy    fz
    1    0    0.0003359426642941924    -0.00014319760244630892    0.00023521431276351883    0.00046665525884611187    -0.00012392718168805834    -7.9704203990245e-05
    2    0    2.7220519365430995    2.7225310768098407    2.7221526648946304    -0.00046665525884611187    0.00012392718168805834    7.9704203990245e-05
 Energy
    -1.8890826158908567
 PlusStress:  xx          yy          zz          yz          xz          xy
     -0.289737044572417    -0.289737044572417    -0.289737044572417    -0.0    0.0    0.00014820309185289873
 Feature EFS_by Qe
END_CFG

BEGIN_CFG
 Size
    2
 Supercell
    5.127603872073559    0.0    0.0
    0.0    5.127603872073559    0.0
    0.0    0.0    5.127603872073559
 AtomData:  id type    cartes_x    cartes_y    cartes_z    fx    fy    fz
    1    0    0.0    0.0    0.0    0.0    0.0    0.0
    2    0    2.5638019360367794    2.5638019360367794    2.5638019360367794    0.0    0.0    0.0
 Energy
    -1.8874933348897684
 PlusStress:  xx          yy          zz          yz          xz          xy
     0.3064864723278721    0.3064864723278721    0.3064864723278721    0.0    0.0    0.0
 Feature EFS_by Qe
END_CFG

BEGIN_CFG
 Size
    2
 Supercell
    5.233328186972109    0.0    0.0
    0.0    5.233328186972109    0.0
    0.0    0.0    5.233328186972109
 AtomData:  id type    cartes_x    cartes_y    cartes_z    fx    fy    fz
    1    0    0.0003359796696036094    -0.00014286985950433858    0.00023497643559504768    0.00046511259683339743    -8.664618304745989e-05    -0.00014449600852425062
    2    0    2.616328113816451    2.6168069633455584    2.6164291170504597    -0.00046511259683339743    8.664618304745989e-05    0.00014449600852425062
 Energy
    -1.9002425495268653
 PlusStress:  xx          yy          zz          yz          xz          xy
     0.08211750982855992    0.08211750982855992    0.08224910840200313    -0.0    0.0    0.000131598573443205
 Feature EFS_by Qe
END_CFG

BEGIN_CFG
 Size
    2
 Supercell
    5.339051972693449    0.0    0.0
    0.0    5.339051972693449    0.0
    0.0    0.0    5.339051972693449
 AtomData:  id type    cartes_x    cartes_y    cartes_z    fx    fy    fz
    1    0    0.00033582636908241795    -0.00014308659286818443    0.00023491828679851175    0.0004046916680020826    -0.00010644367887729494    -0.00012289874034624874
    2    0    2.669190159977642    2.6696690729395924    2.669291068059926    -0.0004046916680020826    0.00010644367887729494    0.00012289874034624874
 Energy
    -1.9001283977627281
 PlusStress:  xx          yy          zz          yz          xz          xy
     -0.1151428372600893    -0.11528257371307483    -0.1151428372600893    0.0    0.0    0.00013973645298554527
 Feature EFS_by Qe
END_CFG

BEGIN_CFG
 Size
    2
 Supercell
    5.550500073313337    0.0    0.0
    0.0    5.550500073313337    0.0
    0.0    0.0    5.550500073313337
 AtomData:  id type    cartes_x    cartes_y    cartes_z    fx    fy    fz
    1    0    0.0003358052544354569    -0.0001432029018914841    0.00023478615310115416    0.0004003207922993918    -9.127416908560315e-05    -5.6307163464076315e-05
    2    0    2.7749142314022333    2.77539323955856    2.7750152505035675    -0.0004003207922993918    9.127416908560315e-05    5.6307163464076315e-05
 Energy
    -1.8688551681461831
 PlusStress:  xx          yy          zz          yz          xz          xy
     -0.4430682370912717    -0.4430682370912717    -0.4430682370912717    -0.0    0.0    0.0001570050450358865
 Feature EFS_by Qe
END_CFG

BEGIN_CFG
 Size
    2
 Supercell
    5.233328186972109    0.0    0.0
    0.0    5.233328186972109    0.0
    0.0    0.0    5.233328186972109
 AtomData:  id type    cartes_x    cartes_y    cartes_z    fx    fy    fz
    1    0    0.0013700853193492981    -0.0015642417950859635    0.00020514646492930666    -0.0003589260282915549    0.0010448964032785666    -0.00011621387162448626
    2    0    2.615294008166705    2.6182283352811404    2.6164589470211252    0.0003589260282915549    -0.0010448964032785666    0.00011621387162448626
 Energy
    -1.9002391481035374
 PlusStress:  xx          yy          zz          yz          xz          xy
     0.08211750982855992    0.08211750982855992    0.08224910840200313    -0.0    0.0    0.000131598573443205
 Feature EFS_by Qe
END_CFG

BEGIN_CFG
 Size
    2
 Supercell
    5.339051972693449    0.0    0.0
    0.0    5.339051972693449    0.0
    0.0    0.0    5.339051972693449
 AtomData:  id type    cartes_x    cartes_y    cartes_z    fx    fy    fz
    1    0    0.0013700007361931391    -0.0015638083228019114    0.00020501959575142844    -0.00033090100172724295    0.0008952581880452682    -9.46166034464844e-05
    2    0    2.668155985610531    2.671089794669527    2.669320966750973    0.00033090100172724295    -0.0008952581880452682    9.46166034464844e-05
 Energy
    -1.9001254045101632
 PlusStress:  xx          yy          zz          yz          xz          xy
     -0.1151428372600893    -0.11528257371307483    -0.1151428372600893    0.0    0.0    0.00013973645298554527
 Feature EFS_by Qe
END_CFG

BEGIN_CFG
 Size
    2
 Supercell
    5.444775758414788    0.0    0.0
    0.0    5.444775758414788    0.0
    0.0    0.0    5.444775758414788
 AtomData:  id type    cartes_x    cartes_y    cartes_z    fx    fy    fz
    1    0    0.0013699055808171605    -0.001563739597816727    0.0002052680460922375    -0.00015786574596777557    0.0007271080286593963    -6.35062528567436e-05
    2    0    2.7210179736265765    2.723951618805211    2.7221826111613017    0.00015786574596777557    -0.0007271080286593963    6.35062528567436e-05
 Energy
    -1.8890800308090547
 PlusStress:  xx          yy          zz          yz          xz          xy
     -0.289737044572417    -0.289737044572417    -0.289737044572417    -0.0    0.0    0.00014820309185289873
 Feature EFS_by Qe
END_CFG

BEGIN_CFG
 Size
    2
 Supercell
    5.550500073313337    0.0    0.0
    0.0    5.550500073313337    0.0
    0.0    0.0    5.550500073313337
 AtomData:  id type    cartes_x    cartes_y    cartes_z    fx    fy    fz
    1    0    0.0013698634180937315    -0.0015641309206596986    0.00020481345270526217    -0.000128812278061654    0.0006468896039982466    -3.5995446963336456e-05
    2    0    2.7738801732385747    2.7768141675773284    2.7750441131039487    0.000128812278061654    -0.0006468896039982466    3.5995446963336456e-05
 Energy
    -1.868852991235599
 PlusStress:  xx          yy          zz          yz          xz          xy
     -0.4430682370912717    -0.4430682370912717    -0.4430682370912717    0.0    0.0    0.0001570050450358865
 Feature EFS_by Qe
END_CFG

BEGIN_CFG
 Size
    2
 Supercell
    5.127603872073559    0.0    0.0
    0.0    5.127603872073559    0.0
    0.0    0.0    5.127603872073559
 AtomData:  id type    cartes_x    cartes_y    cartes_z    fx    fy    fz
    1    0    0.00033585805362081815    -0.0001430601480308523    0.000234844257340969    0.000455856624757111    -0.0001213560783335343    -0.0001519522082523703
    2    0    2.5634660779831586    2.5639449961848104    2.5635670917794386    -0.000455856624757111    0.0001213560783335343    0.0001519522082523703
 Energy
    -1.887493198832999
 PlusStress:  xx          yy          zz          yz          xz          xy
     0.30623890651823726    0.30623890651823726    0.30636268942305467    0.0    0.0    0.0001237829048173958
 Feature EFS_by Qe
END_CFG

BEGIN_CFG
 Size
    2
 Supercell
    5.021881144706641    0.0    0.0
    0.0    5.021881144706641    0.0
    0.0    0.0    5.021881144706641
 AtomData:  id type    cartes_x    cartes_y    cartes_z    fx    fy    fz
    1    0    0.00033596384858087424    -0.0001431236126241393    0.00023502403757227078    0.00042577471550917976    -0.00010927189256727137    -0.0001671217180440621
    2    0    2.510604106316625    2.5110831937778304    2.510705046127634    -0.00042577471550917976    0.00010927189256727137    0.0001671217180440621
 Energy
    -1.8595815277890324
 PlusStress:  xx          yy          zz          yz          xz          xy
     0.5603682047084358    0.5603682047084358    0.5603682047084358    0.0    0.0    0.0
 Feature EFS_by Qe
END_CFG

BEGIN_CFG
 Size
    2
 Supercell
    5.550500073313337    0.0    0.0
    0.0    5.550500073313337    0.0
    0.0    0.0    5.550500073313337
 AtomData:  id type    cartes_x    cartes_y    cartes_z    fx    fy    fz
    1    0    0.004650208961421914    -0.0029001362883062185    -6.10555008064467e-05    -0.0018141705269521572    0.001342115951061545    0.00010232991351005649
    2    0    2.770599827695247    2.778150172944975    2.7753099820574607    0.0018141705269521572    -0.001342115951061545    -0.00010232991351005649
 Energy
    -1.8688395215995115
 PlusStress:  xx          yy          zz          yz          xz          xy
     -0.4430682370912717    -0.4430682370912717    -0.44291123204623584    0.0    0.0    0.0
 Feature EFS_by Qe
END_CFG

BEGIN_CFG
 Size
    2
 Supercell
    5.021881144706641    0.0    0.0
    0.0    5.021881144706641    0.0
    0.0    0.0    5.021881144706641
 AtomData:  id type    cartes_x    cartes_y    cartes_z    fx    fy    fz
    1    0    0.0013699691762759716    -0.0015638137884616478    0.00020489275070403095    -0.0006304345425292927    0.0013392877373715683    -0.00014038224315701217
    2    0    2.5095711053651586    2.5125038839536673    2.5107351774145017    0.0006304345425292927    -0.0013392877373715683    0.00014038224315701217
 Energy
    -1.8595771739674092
 PlusStress:  xx          yy          zz          yz          xz          xy
     0.5602519216196813    0.5602519216196813    0.5603682047084358    0.0    0.0    0.0
 Feature EFS_by Qe
END_CFG

BEGIN_CFG
 Size
    2
 Supercell
    5.127603872073559    0.0    0.0
    0.0    5.127603872073559    0.0
    0.0    0.0    5.127603872073559
 AtomData:  id type    cartes_x    cartes_y    cartes_z    fx    fy    fz
    1    0    0.0015808402737602784    -0.0018059420837443075    0.00023689529888979842    -0.000666944210163534    0.0013835107150693819    -0.00014526733953060784
    2    0    2.5622210957630194    2.565607878120524    2.56356504073789    0.000666944210163534    -0.0013835107150693819    0.00014526733953060784
 Energy
    -1.8874880286693951
 PlusStress:  xx          yy          zz          yz          xz          xy
     0.30636268942305467    0.30623890651823726    0.30636268942305467    0.0    0.0    0.0001237829048173958
 Feature EFS_by Qe
END_CFG

BEGIN_CFG
 Size
    2
 Supercell
    5.233328186972109    0.0    0.0
    0.0    5.233328186972109    0.0
    0.0    0.0    5.233328186972109
 AtomData:  id type    cartes_x    cartes_y    cartes_z    fx    fy    fz
    1    0    0.004478158929592034    -0.003022247027976393    0.0005662461098303822    -0.00282872791064734    0.0022042069058334527    -0.00041086231605294034
    2    0    2.6121859345564626    2.619686340514031    2.616097847376224    0.00282872791064734    -0.0022042069058334527    0.00041086231605294034
 Energy
    -1.900218875621249
 PlusStress:  xx          yy          zz          yz          xz          xy
     0.08211750982855992    0.08211750982855992    0.08224910840200313    -0.0    0.0    0.0
 Feature EFS_by Qe
END_CFG

BEGIN_CFG
 Size
    2
 Supercell
    5.339051972693449    0.0    0.0
    0.0    5.339051972693449    0.0
    0.0    0.0    5.339051972693449
 AtomData:  id type    cartes_x    cartes_y    cartes_z    fx    fy    fz
    1    0    0.004477862889497995    -0.0030219034165444923    0.0005659395091055056    -0.0025189099564271946    0.0019193286541521902    -0.0003496700562152684
    2    0    2.6650481234572263    2.6725478897632686    2.668960046837619    0.0025189099564271946    -0.0019193286541521902    0.0003496700562152684
 Energy
    -1.9001074449952284
 PlusStress:  xx          yy          zz          yz          xz          xy
     -0.1151428372600893    -0.1151428372600893    -0.1151428372600893    -0.0    0.0    0.0
 Feature EFS_by Qe
END_CFG

BEGIN_CFG
 Size
    2
 Supercell
    5.444775758414788    0.0    0.0
    0.0    5.444775758414788    0.0
    0.0    0.0    5.444775758414788
 AtomData:  id type    cartes_x    cartes_y    cartes_z    fx    fy    fz
    1    0    0.004649838497686229    -0.0028998875689317163    -6.098148849424562e-05    -0.002120131826140517    0.0015197791928591555    9.307394143376998e-05
    2    0    2.7177380407097074    2.7252877667763253    2.7224477717407365    0.002120131826140517    -0.0015197791928591555    -9.307394143376998e-05
 Energy
    -1.8890645203191525
 PlusStress:  xx          yy          zz          yz          xz          xy
     -0.289737044572417    -0.289737044572417    -0.2895888414805641    0.0    0.0    0.0
 Feature EFS_by Qe
END_CFG

BEGIN_CFG
 Size
    2
 Supercell
    5.233328186972109    0.0    0.0
    0.0    5.233328186972109    0.0
    0.0    0.0    5.233328186972109
 AtomData:  id type    cartes_x    cartes_y    cartes_z    fx    fy    fz
    1    0    0.002783083929831768    -0.0022639377736841343    0.0002061931305667011    -0.0014822410838831047    0.001605396934564806    -0.00011544254061812905
    2    0    2.6138810095562226    2.6189290779253764    2.6164579003554875    0.0014822410838831047    -0.001605396934564806    0.00011544254061812905
 Energy
    -1.9002322092001123
 PlusStress:  xx          yy          zz          yz          xz          xy
     0.08211750982855992    0.08211750982855992    0.08224910840200313    -0.0    0.0    0.000131598573443205
 Feature EFS_by Qe
END_CFG

BEGIN_CFG
 Size
    2
 Supercell
    5.550500073313337    0.0    0.0
    0.0    5.550500073313337    0.0
    0.0    0.0    5.550500073313337
 AtomData:  id type    cartes_x    cartes_y    cartes_z    fx    fy    fz
    1    0    0.0027830207367593074    -0.002265159079919173    0.00020592355271992482    -0.0008543776447083359    0.001010700728663397    -3.3681453944264826e-05
    2    0    2.7724670159199096    2.7775140856365734    2.7750441131039487    0.0008543776447083359    -0.001010700728663397    3.3681453944264826e-05
 Energy
    -1.8688485013567515
 PlusStress:  xx          yy          zz          yz          xz          xy
     -0.4430682370912717    -0.4430682370912717    -0.4430682370912717    -0.0    0.0    0.0001570050450358865
 Feature EFS_by Qe
END_CFG

BEGIN_CFG
 Size
    2
 Supercell
    5.127603872073559    0.0    0.0
    0.0    5.127603872073559    0.0
    0.0    0.0    5.127603872073559
 AtomData:  id type    cartes_x    cartes_y    cartes_z    fx    fy    fz
    1    0    0.0065720498828366804    -0.003531893547084268    -0.0005322452819212355    -0.005178716376682306    0.0029374855825437065    0.0005437883594818329
    2    0    2.5572298861539426    2.5673338295838644    2.564334181318701    0.005178716376682306    -0.0029374855825437065    -0.0005437883594818329
 Energy
    -1.8874419053704514
 PlusStress:  xx          yy          zz          yz          xz          xy
     0.30623890651823726    0.30636268942305467    0.3064864723278721    0.0    0.0    0.0
 Feature EFS_by Qe
END_CFG

BEGIN_CFG
 Size
    2
 Supercell
    5.021881144706641    0.0    0.0
    0.0    5.021881144706641    0.0
    0.0    0.0    5.021881144706641
 AtomData:  id type    cartes_x    cartes_y    cartes_z    fx    fy    fz
    1    0    0.004477007040505971    -0.0030221680728844567    0.0005659660050084384    -0.003816031598784568    0.002822043041925578    -0.0005072786918475916
    2    0    2.5064630631247    2.5139622382380904    2.510374104160197    0.003816031598784568    -0.002822043041925578    0.0005072786918475916
 Energy
    -1.8595510510367603
 PlusStress:  xx          yy          zz          yz          xz          xy
     0.5603682047084358    0.5603682047084358    0.5604844877971905    0.0    0.0    0.0
 Feature EFS_by Qe
END_CFG

BEGIN_CFG
 Size
    2
 Supercell
    5.550500073313337    0.0    0.0
    0.0    5.550500073313337    0.0
    0.0    0.0    5.550500073313337
 AtomData:  id type    cartes_x    cartes_y    cartes_z    fx    fy    fz
    1    0    0.008421773761238328    -0.005604894974031808    0.0007271155096040473    -0.003756896221630516    0.0027371966312262847    -0.0003005619821438594