BEGIN_CFG
 Size
    1
 Supercell
    1.9823191101784348    1.9823191101784348    1.9823191101784348
    -1.9823225436574508    1.9823225436574508    1.9823225436574508
    -1.9823225436574508    -1.9823225436574508    1.9823225436574508
 AtomData:  id type    cartes_x    cartes_y    cartes_z    fx    fy    fz
    1    0    0.0    0.0    0.0    0.0    0.0    0.0
 Energy
    0.0648883223636858
 PlusStress:  xx          yy          zz          yz          xz          xy
     2.8022022344070985    2.8022594519842956    2.8021736256185004    -2.8608788598220495e-05    2.8608788598220495e-05    2.8608788598220495e-05
 Feature EFS_by Qe
END_CFG

BEGIN_CFG
 Size
    1
 Supercell
    2.0483973813325136    2.0483973813325136    2.0483973813325136
    -2.048400929262506    2.048400929262506    2.048400929262506
    -2.048400929262506    -2.048400929262506    2.048400929262506
 AtomData:  id type    cartes_x    cartes_y    cartes_z    fx    fy    fz
    1    0    0.0    0.0    0.0    0.0    0.0    0.0
 Energy
    -0.18972589552777208
 PlusStress:  xx          yy          zz          yz          xz          xy
     2.353855075967846    2.353886642102245    2.353855075967846    -3.15661343985818e-05    3.15661343985818e-05    -0.0
 Feature EFS_by Qe
END_CFG

BEGIN_CFG
 Size
    1
 Supercell
    2.114475652486593    2.114475652486593    2.114475652486593
    -2.1144793148675616    2.1144793148675616    2.1144793148675616
    -2.1144793148675616    -2.1144793148675616    2.1144793148675616
 AtomData:  id type    cartes_x    cartes_y    cartes_z    fx    fy    fz
    1    0    0.0    0.0    0.0    0.0    0.0    0.0
 Energy
    -0.3951077771976088
 PlusStress:  xx          yy          zz          yz          xz          xy
     1.9396298570749564    1.9396992982126149    1.939595136506127    -0.0    0.0    -3.472056882920944e-05
 Feature EFS_by Qe
END_CFG

BEGIN_CFG
 Size
    1
 Supercell
    2.1805542291611344    2.1805542291611344    2.1805542291611344
    -2.1805580059936087    2.1805580059936087    2.1805580059936087
    -2.1805580059936087    -2.1805580059936087    2.1805580059936087
 AtomData:  id type    cartes_x    cartes_y    cartes_z    fx    fy    fz
    1    0    0.0    0.0    0.0    0.0    0.0    0.0
 Energy
    -0.5575562142830677
 PlusStress:  xx          yy          zz          yz          xz          xy
     1.5613313284252743    1.5613313284252743    1.5612932499595906    -7.615693136723042e-05    3.807846568361521e-05    -7.615693136723042e-05
 Feature EFS_by Qe
END_CFG

BEGIN_CFG
 Size
    1
 Supercell
    2.2466325003152137    2.2466325003152137    2.2466325003152137
    -2.246636391598664    2.246636391598664    2.246636391598664
    -2.246636391598664    -2.246636391598664    2.246636391598664
 AtomData:  id type    cartes_x    cartes_y    cartes_z    fx    fy    fz
    1    0    0.0    0.0    0.0    0.0    0.0    0.0
 Energy
    -0.6830385276819015
 PlusStress:  xx          yy          zz          yz          xz          xy
     1.2248966144778197    1.2249382606295427    1.2248966144778197    4.164615172303209e-05    4.164615172303209e-05    -8.329230344606418e-05
 Feature EFS_by Qe
END_CFG

BEGIN_CFG
 Size
    1
 Supercell
    2.3127055776214296    2.3127055776214296    2.3127055776214296
    -2.3127095833468605    2.3127095833468605    2.3127095833468605
    -2.3127095833468605    -2.3127095833468605    2.3127095833468605
 AtomData:  id type    cartes_x    cartes_y    cartes_z    fx    fy    fz
    1    0    0.0    0.0    0.0    0.0    0.0    0.0
 Energy
    -0.7775159157308735
 PlusStress:  xx          yy          zz          yz          xz          xy
     0.9328079009158396    0.9328079009158396    0.9327624712221312    -0.0    4.542969370846149e-05    -9.085938741692298e-05
 Feature EFS_by Qe
END_CFG

BEGIN_CFG
 Size
    1
 Supercell
    2.378783848775509    2.378783848775509    2.378783848775509
    -2.3787879689519165    2.3787879689519165    2.3787879689519165
    -2.3787879689519165    -2.3787879689519165    2.3787879689519165
 AtomData:  id type    cartes_x    cartes_y    cartes_z    fx    fy    fz
    1    0    0.0    0.0    0.0    0.0    0.0    0.0
 Energy
    -0.8463746001793879
 PlusStress:  xx          yy          zz          yz          xz          xy
     0.6820690968856151    0.6821185329294569    0.6820690968856151    0.0    4.943604384182178e-05    -4.943604384182178e-05
 Feature EFS_by Qe
END_CFG

BEGIN_CFG
 Size
    1
 Supercell
    2.444862119929588    2.444862119929588    2.444862119929588
    -2.4448663545569715    2.4448663545569715    2.4448663545569715
    -2.4448663545569715    -2.4448663545569715    2.4448663545569715
 AtomData:  id type    cartes_x    cartes_y    cartes_z    fx    fy    fz
    1    0    0.0    0.0    0.0    0.0    0.0    0.0
 Energy
    -0.8942281354709394
 PlusStress:  xx          yy          zz          yz          xz          xy
     0.46715474343059926    0.46720841470167357    0.46715474343059926    -0.0    5.3671271074287605e-05    -5.3671271074287605e-05
 Feature EFS_by Qe
END_CFG

BEGIN_CFG
 Size
    1
 Supercell
    2.5109403910836674    2.5109403910836674    2.5109403910836674
    -2.510944740162027    2.510944740162027    2.510944740162027
    -2.510944740162027    -2.510944740162027    2.510944740162027
 AtomData:  id type    cartes_x    cartes_y    cartes_z    fx    fy    fz
    1    0    0.0    0.0    0.0    0.0    0.0    0.0
 Energy
    -0.9248840747952727
 PlusStress:  xx          yy          zz          yz          xz          xy
     0.28361537451883884    0.28361537451883884    0.28361537451883884    -0.0    0.0    -5.81417331936939e-05
 Feature EFS_by Qe
END_CFG

BEGIN_CFG
 Size
    1
 Supercell
    2.5770186622377467    2.5770186622377467    2.5770186622377467
    -2.577023125767082    2.577023125767082    2.577023125767082
    -2.577023125767082    -2.577023125767082    2.577023125767082
 AtomData:  id type    cartes_x    cartes_y    cartes_z    fx    fy    fz
    1    0    0.0    0.0    0.0    0.0    0.0    0.0
 Energy
    -0.9414934966537203
 PlusStress:  xx          yy          zz          yz          xz          xy
     0.12665038279556934    0.12665038279556934    0.12665038279556934    0.0    0.0    -6.285378798787561e-05
 Feature EFS_by Qe
END_CFG

BEGIN_CFG
 Size
    1
 Supercell
    2.643097238912288    2.643097238912288    2.643097238912288
    -2.6431018168931293    2.6431018168931293    2.6431018168931293
    -2.6431018168931293    -2.6431018168931293    2.6431018168931293
 AtomData:  id type    cartes_x    cartes_y    cartes_z    fx    fy    fz
    1    0    0.0    0.0    0.0    0.0    0.0    0.0
 Energy
    -0.946689646871846
 PlusStress:  xx          yy          zz          yz          xz          xy
     -0.007934216561017771    -0.007866402744256935    -0.007934216561017771    0.0    -0.0    -6.781381676083566e-05
 Feature EFS_by Qe
END_CFG

BEGIN_CFG
 Size
    1
 Supercell
    2.709170010698042    2.709170010698042    2.709170010698042
    -2.709170010698042    2.709174703120334    2.709174703120334
    -2.709174703120334    -2.709174703120334    2.709174703120334
 AtomData:  id type    cartes_x    cartes_y    cartes_z    fx    fy    fz
    1    0    0.0    0.0    0.0    0.0    0.0    0.0
 Energy
    -0.9425478018051763
 PlusStress:  xx          yy          zz          yz          xz          xy
     -0.12268640747207918    -0.12268640747207918    -0.12268640747207918    0.0    0.0    -7.302762349528523e-05
 Feature EFS_by Qe
END_CFG

BEGIN_CFG
 Size
    1
 Supercell
    2.7752485873725834    2.7752485873725834    2.7752485873725834
    -2.7752485873725834    2.7752533942463815    2.7752533942463815
    -2.7752533942463815    -2.7752533942463815    2.7752533942463815
 AtomData:  id type    cartes_x    cartes_y    cartes_z    fx    fy    fz
    1    0    0.0    0.0    0.0    0.0    0.0    0.0
 Energy
    -0.9308920767155087
 PlusStress:  xx          yy          zz          yz          xz          xy
     -0.22074932100619826    -0.22074932100619826    -0.22074932100619826    0.0    0.0    -7.850260348726823e-05
 Feature EFS_by Qe
END_CFG

BEGIN_CFG
 Size
    1
 Supercell
    2.8413268585266627    2.8413268585266627    2.8413268585266627
    -2.8413268585266627    2.8413317798514366    2.8413317798514366
    -2.8413317798514366    -2.8413317798514366    2.8413317798514366
 AtomData:  id type    cartes_x    cartes_y    cartes_z    fx    fy    fz
    1    0    0.0    0.0    0.0    0.0    0.0    0.0
 Energy
    -0.9131299805449089
 PlusStress:  xx          yy          zz          yz          xz          xy
     -0.30420718523082124    -0.30429142981271845    -0.30429142981271845    0.0    0.0    -8.424458189720887e-05
 Feature EFS_by Qe
END_CFG

BEGIN_CFG
 Size
    1
 Supercell
    2.907409565022925    2.90741460081508    2.907419636607235
    -2.90742467239939    2.9074297081915454    2.907434743983701
    -2.907444815568011    -2.907449851360166    2.9074548871523214
 AtomData:  id type    cartes_x    cartes_y    cartes_z    fx    fy    fz
    1    0    0.0    0.0    0.0    0.0    0.0    0.0
 Energy
    -0.8905185432711278
 PlusStress:  xx          yy          zz          yz          xz          xy
     -0.37503924225512564    -0.37503924225512564    -0.37503924225512564    -0.0    0.0    -0.0
 Feature EFS_by Qe
END_CFG

BEGIN_CFG
 Size
    1
 Supercell
    2.9734834008348208    2.9734834008348208    2.9734834008348208
    -2.9734834008348208    2.9734885510615476    2.9734885510615476
    -2.9734885510615476    -2.9734885510615476    2.9734885510615476
 AtomData:  id type    cartes_x    cartes_y    cartes_z    fx    fy    fz
    1    0    0.0    0.0    0.0    0.0    0.0    0.0
 Energy
    -0.8640258099517268
 PlusStress:  xx          yy          zz          yz          xz          xy
     -0.43527011680375505    -0.4351735617645351    -0.43527011680375505    0.0    0.0    -9.65550392199989e-05
 Feature EFS_by Qe
END_CFG

BEGIN_CFG
 Size
    1
 Supercell
    3.039556478141037    3.039556478141037    3.039556478141037
    -3.039556478141037    3.039561742809744    3.039561742809744
    -3.039561742809744    -3.039561742809744    3.039561742809744
 AtomData:  id type    cartes_x    cartes_y    cartes_z    fx    fy    fz
    1    0    0.0    0.0    0.0    0.0    0.0    0.0
 Energy
    -0.8345439058773536
 PlusStress:  xx          yy          zz          yz          xz          xy
     -0.48545976341905056    -0.48545976341905056    -0.48545976341905056    0.0    -0.0    -0.00010313570499661155
 Feature EFS_by Qe
END_CFG

BEGIN_CFG
 Size
    1
 Supercell
    3.105638841293366    3.105644220429454    3.1056495995655418
    -3.1056549787016303    3.1056603578377184    3.1056657369738065
    -3.105671116109894    -3.1056764952459823    3.105681874382071
 AtomData:  id type    cartes_x    cartes_y    cartes_z    fx    fy    fz
    1    0    0.0    0.0    0.0    0.0    0.0    0.0
 Energy
    -0.8027298499639528
 PlusStress:  xx          yy          zz          yz          xz          xy
     -0.527396406422512    -0.5272863946564664    -0.527396406422512    -0.0    0.0    -0.0
 Feature EFS_by Qe
END_CFG

BEGIN_CFG
 Size
    1
 Supercell
    3.1717130204491957    3.1717130204491957    3.1717130204491957
    -3.1717130204491957    3.171718514019855    3.171718514019855
    -3.171718514019855    -3.171718514019855    3.171718514019855
 AtomData:  id type    cartes_x    cartes_y    cartes_z    fx    fy    fz
    1    0    0.0    0.0    0.0    0.0    0.0    0.0
 Energy
    -0.7692583485277282
 PlusStress:  xx          yy          zz          yz          xz          xy
     -0.5622381205677549    -0.5622381205677549    -0.5622381205677549    0.0    -0.0    -0.0001171817675214162
 Feature EFS_by Qe
END_CFG

BEGIN_CFG
 Size
    1
 Supercell
    3.237791597123737    3.237791597123737    3.237791597123737
    -3.237791597123737    3.237797205145902    3.237797205145902
    -3.237797205145902    -3.237797205145902    3.237797205145902
 AtomData:  id type    cartes_x    cartes_y    cartes_z    fx    fy    fz
    1    0    0.0    0.0    0.0    0.0    0.0    0.0
 Energy
    -0.734561518378996
 PlusStress:  xx          yy          zz          yz          xz          xy
     -0.590262302371082    -0.590262302371082    -0.590262302371082    -0.0    0.0    -0.0
 Feature EFS_by Qe
END_CFG

BEGIN_CFG
 Size
    1
 Supercell
    3.3038698682778165    3.3038698682778165    3.3038698682778165
    -3.3038698682778165    3.3038755907509576    3.3038755907509576
    -3.3038755907509576    -3.3038755907509576    3.3038755907509576
 AtomData:  id type    cartes_x    cartes_y    cartes_z    fx    fy    fz
    1    0    0.0    0.0    0.0    0.0    0.0    0.0
 Energy
    -0.6990699797011075
 PlusStress:  xx          yy          zz          yz          xz          xy
     -0.6127069648458908    -0.6125745163018256    -0.6127069648458908    -0.0    0.0    0.0
 Feature EFS_by Qe
END_CFG

BEGIN_CFG
 Size
    16
 Supercell
    10.466655844767008    0.0    0.0
    0.0    10.466655844767008    0.0
    0.0    0.0    10.466655844767008
 AtomData:  id type    cartes_x    cartes_y    cartes_z    fx    fy    fz
    1    0    0.000244919746767548    2.4073308442964117e-05    0.0001706064902697022    -0.00030673263019471704    -0.0024813718474511436    -0.00034015697380352945
    2    0    2.616236921633285    2.6169748208703414    2.616363568169007    0.0008165824253968327    -0.00035969735929791214    0.0016707029597697162
    3    0    5.232910302815298    -0.00019572646429714304    -2.3026642858487417e-05    0.0001491239945623939    -0.0008870306573107911    0.0003892650478749385
    4    0    7.849812903760309    2.616851314331373    2.6165090546852494    -0.0004381160116108951    -0.001534691592315395    0.0021926369407380946
    5    0    0.0002585263993657451    5.233229535818563    -7.849991883575256e-05    0.0009150556838751032    0.002679861026420399    -0.0011832217637519598
    6    0    2.6164860280423907    7.85028285660774    2.6168115410391635    -0.0005224482016392833    6.42775838631008e-06    -0.0017048986343848856
    7    0    5.23373612196145    5.233393862315325    -0.00035691296430655494    -0.0011091739871416674    0.0011194584005597638    -0.00018151989682939668
    8    0    7.8496464839323785    7.850135276760329    2.6168377076787745    0.0009104276978369599    0.0011857928671064836    -0.0015434333437207768
    9    0    0.00021351977923324698    1.5699983767150512e-05    5.233213835834796    -0.0006052377296549572    0.0011030033390908099    0.00020363138567830336
    10    0    2.6164420680878426    2.6163614748378383    7.849526117390163    7.379066627483973e-05    0.0005895539991923606    -0.0014593582640278408
    11    0    5.2337465886172945    -0.00032132633443434717    5.233612615422481    0.00017792035213306303    0.0022941955232417943    -0.0003828372894886284
    12    0    7.849695677214848    2.616771767746953    7.849724983851214    0.0003365574291071958    -0.0006862274853224642    -0.001881019214169782
    13    0    -0.00036528628898236856    5.233130102588038    5.2332546557925905    0.0005635858553116679    -0.0009919316741753717    0.0009207121112550559
    14    0    2.6165823212761627    7.850064103500585    7.850496376386974    -0.0013698838672904043    -0.0005304186220383079    0.0015894560937667567
    15    0    5.233807295221194    5.233316409062074    5.23345561558481    -0.000753076172540089    -0.002177467430946403    0.00038643683418496203
    16    0    7.850482769734374    7.84990187033499    7.850414736471384    0.0011618816059094103    0.0006708008651953199    0.001323089786238067
 Energy
    -15.20194447792528
 PlusStress:  xx          yy          zz          yz          xz          xy
     0.7295823805096034    0.7295823805096034    0.7295823805096034    -0.0    -0.0    0.0
 Feature EFS_by Qe
END_CFG

BEGIN_CFG
 Size
    16
 Supercell
    10.889550987652365    0.0    0.0
    0.0    10.889550987652365    0.0
    0.0    0.0    10.889550987652365
 AtomData:  id type    cartes_x    cartes_y    cartes_z    fx    fy    fz
    1    0    0.0002450148972221782    2.3957012172835203e-05    0.0001709659505061421    -0.0002463117013634023    -0.002274398027411959    -0.00012804094705529682
    2    0    2.721960876514375    2.7226991880713376    2.72208828426093    0.0006299203218583879    -0.00047642545159330327    0.001579428790684113
    3    0    5.444357335068256    -0.00019601191777774256    -2.2868057074069963e-05    0.00013935380181520255    -0.0008474356656511211    0.0002949055547639065
    4    0    8.166984652103075    2.7225750471900785    2.7222331152890664    -0.0003190739262964324    -0.001557060191499754    0.0020612535593219168
    5    0    0.00025917131350612627    5.444677487867294    -7.949372220986226e-05    0.000911713249514222    0.0024818860681220484    -0.0011210010625724782
    6    0    2.7222102472319927    8.167453991750644    2.722534755851424    -0.0006049806193195048    0.00017894879347487265    -0.0016038542725520912
    7    0    5.445183851988219    5.444840831132108    -0.0003571772723949975    -0.0010436108516013048    0.0010968326910399523    -0.00046742658985246907
    8    0    8.166819130928063    8.167306982812311    2.722561979728894    0.0009014288360961257    0.0012901796633001594    -0.0014573013813442214
    9    0    0.00021343519935798633    1.6334326481478547e-05    5.44466224249591    -0.0005098497952021156    0.0010484959479749004    3.0853240254288385e-05
    10    0    2.722164511117844    2.722086106350733    8.1666982569121    0.00019463252393746926    0.0005499590075326905    -0.0014431603128943393
    11    0    5.445193652584108    -0.00032124175413574473    5.445060800062058    0.00016300795267682367    0.0020872217032026096    -0.0002481114737115691
    12    0    8.16686704495241    2.7224955534678688    8.166896446740076    0.0001272696160489396    -0.0005718133860461447    -0.0017979725758186559
    13    0    -0.00036479995808635425    5.444578392953306    5.4447025338345645    0.0005939248748950514    -0.0009968167705489675    0.000879831567918124
    14    0    2.722306075280684    8.16723620073089    8.1676685159051    -0.0011384845653832417    -0.0005039362574867103    0.0015146369861501073
    15    0    5.445254634069639    5.444763515320096    5.444903990527837    -0.0007361068904002305    -0.0020928781305825624    0.0006093514950221956
    16    0    8.167655448443915    8.167073946421175    8.167585755317594    0.0009376813933949147    0.0005869828958378365    0.001296864532021922
 Energy
    -15.112664600659627
 PlusStress:  xx          yy          zz          yz          xz          xy
     -2.2349022993267855    -2.233716674764808    -2.233716674764808    0.0    -0.0    -0.0
 Feature EFS_by Qe
END_CFG

BEGIN_CFG
 Size
    16
 Supercell
    10.04376123105886    0.0    0.0
    0.0    10.04376123105886    0.0
    0.0    0.0    10.04376123105886
 AtomData:  id type    cartes_x    cartes_y    cartes_z    fx    fy    fz
    1    0    0.00024506777403783623    2.4105026954541267e-05    0.00017074394092800064    -0.0005975244195913851    -0.0028446687514453893    -0.00033090100172724295
    2    0    2.5105134479123956    2.511250659986755    2.51064100368003    0.0010155858250369928    -0.0004908236303786377    0.0020733377450881797
    3    0    5.021461790686096    -0.0001958533440056478    -2.310065083143538e-05    0.00039492147525489133    -0.0009266256489704614    0.0004990511611131146
    4    0    7.5326421443442335    2.511128126099736    2.510784629465634    -0.0005245050843229026    -0.0018874469725560922    0.0022209190776378593
    5    0    0.0002591290397613186    5.021783191045489    -7.9345713725365e-05    0.000880602898924481    0.0031259474584303185    -0.0014524162849706259
    6    0    2.510762533190926    7.533111187993724    2.5110879510548116    -0.0006132081500539817    4.6279860381432585e-05    -0.0016663320840670252
    7    0    5.022288392235411    5.021945899977433    -0.0003565535237025896    -0.0011870784187837458    0.0012526415543241086    -0.0003491558355443636
    8    0    7.53247642228392    7.53296454907975    2.5111150692101356    0.0011168872972052396    0.0014927826076366532    -0.0019118724544240704
    9    0    0.00021292773809844786    1.6070017969694177e-05    5.0217661166513965    -0.0005784982547679073    0.0011197155108952162    9.744481713646083e-05
    10    0    2.510718340641509    2.5106379905516603    7.532354892773025    0.00015786574596777557    0.0007638748066290899    -0.0017257245715565303
    11    0    5.022299440372766    -0.0003214003593938836    5.022164853972269    -3.0853240254288385e-06    0.0024800862957738814    -0.0004949373957458762
    12    0    7.53252463233783    2.5110477760098875    7.5325537592454    0.0003378429807844578    -0.000756161496565518    -0.0018347393537883495
    13    0    -0.0003645885326874367    5.021682753433179    5.0218083004485665    0.0008842024436208147    -0.0009636495372756073    0.0011117450904961914
    14    0    2.51085794892262    7.532893238375009    7.533326124484067    -0.001463472029395079    -0.000775958992395353    0.001534691592315395
    15    0    5.022358698564029    5.021868563015953    5.022008171297065    -0.0010942615876854281    -0.002376470830586563    0.000561786082963501
    16    0    7.533312063218345    7.53273153381919    7.53324276126585    0.001273981712166658    0.000740220655767469    0.0016678747460797396
 Energy
    -14.87665562373877
 PlusStress:  xx          yy          zz          yz          xz          xy
     4.545271936375105    4.545271936375105    4.545271936375105    -0.0    -0.0    0.0
 Feature EFS_by Qe
END_CFG

BEGIN_CFG
 Size
    16
 Supercell
    10.25520880250154    0.0    0.0
    0.0    10.25520880250154    0.0
    0.0    0.0    10.25520880250154
 AtomData:  id type    cartes_x    cartes_y    cartes_z    fx    fy    fz
    1    0    0.00024509949037978683    2.3586980245753543e-05    0.00017126198700177572    -0.00032318769166367084    -0.00248420006114112    -0.00040829121269841636
    2    0    2.563374558418321    2.5641129334521007    2.563502748528352    0.0009541364548638684    -0.00033218655340450494    0.0016874151315741223
    3    0    5.127185988731628    -0.00019587448812777942    -2.2561459365503392e-05    0.00011621387162448626    -0.0008353514798848581    0.0004046916680020826
    4    0    7.691227135722112    2.563988845425591    2.5636473469724677    -0.0005471307938427141    -0.0017786893006597256    0.002169754120882831
    5    0    0.000259456782703289    5.127505951246266    -7.896510777926187e-05    0.001208418576626295    0.002727683548814546    -0.0014673286844268652
    6    0    2.5636237599922214    7.691696824285266    2.5639498756321415    -0.0004939089544040666    -5.219339809683786e-05    -0.001770718880260701
    7    0    5.12801153304023    5.127670034587106    -0.0003568812663270536    -0.0013945664594938352    0.0011351421310223603    -0.0003895221582103909
    8    0    7.691062026860392    7.691549149278511    2.5639755136541473    0.0009137701321978412    0.0014133355139818605    -0.0016115675826156636
    9    0    0.00021330834309203205    1.6408334084002466e-05    5.1274895429121825    -0.0006309487632001975    0.0010942615876854281    0.00025839588712966527
    10    0    2.5635796625943708    2.5634996719657113    7.690941015396522    0.00013961091215065495    0.0008278952801567383    -0.0014182206103554563
    11    0    5.1280228137699115    -0.00032098803551829823    5.127888470534599    0.00013961091215065495    0.002347160252344989    -0.0003856655031786049
    12    0    7.691110226341763    2.5639098803178118    7.691139966447291    0.0003080181818719791    -0.0007289078010075632    -0.0018437382155291838
    13    0    -0.0003650854333690548    5.127405450200002    5.127531589268273    0.0008371512522330249    -0.0010101865079924922    0.0011850215361001264
    14    0    2.5637201589549647    7.691477362816893    7.691912183670119    -0.001349315040454212    -0.0007872718471552588    0.0016100249206029487
    15    0    5.128083319501847    5.127592095000208    5.127731565839921    -0.0010595516923993537    -0.0022376312494422654    0.0005939248748950514
    16    0    7.691897826377795    7.691316356038693    7.691829116478818    0.0011819362120746978    0.0007011398847787036    0.0013858247080884535
 Energy
    -15.099951032942045
 PlusStress:  xx          yy          zz          yz          xz          xy
     2.5192304588097447    2.5192304588097447    2.5192304588097447    -0.0    -0.0    0.0
 Feature EFS_by Qe
END_CFG

BEGIN_CFG
 Size
    16
 Supercell
    10.678103945386898    0.0    0.0
    0.0    10.678103945386898    0.0
    0.0    0.0    10.678103945386898
 AtomData:  id type    cartes_x    cartes_y    cartes_z    fx    fy    fz
    1    0    0.00024452858034936    2.3491828679851175e-05    0.00017084966312619037    -0.0003974925786094154    -0.002353330900395847    -0.00020106028232377932
    2    0    2.6690988621889087    2.6698367191715353    2.6692259316258586    0.0006682297618407961    -0.0003514698285634352    0.0016637609807125012
    3    0    5.3386333910187895    -0.00019647711259511893    -2.3491828679851175e-05    0.00025839588712966527    -0.0007972991502379025    0.0002496541357242835
    4    0    8.00839856689389    2.669712853165769    2.669371153839516    -0.0003273014570309093    -0.001413078403646408    0.001981549355331672
    5    0    0.0002594779258729016    5.338953734137151    -7.901796919586306e-05    0.0007625892549518279    0.0025448781003078874    -0.0010227849144296601
    6    0    2.6693476620108365    8.008868403467487    2.6696744119915654    -0.0006538315830554615    -1.0027303082643727e-05    -0.0015873992110831375
    7    0    5.339459876264162    5.339117109127516    -0.00035664867177592237    -0.0009739339506937035    0.0010595516923993537    -0.00035969735929791214
    8    0    8.008233056282737    8.008721045633042    2.6697000394410346    0.001020213811075136    0.001127943041629693    -0.001620309334021045
    9    0    0.00021249426851319925    1.6017155918080346e-05    5.338937716981233    -0.00048053921696054164    0.0010664936714565687    5.887826681860035e-05
    10    0    2.669302813974266    2.66922379600507    8.008112393708155    0.00026019565947783206    0.0006232354531366253    -0.0015295493856063468
    11    0    5.339469486557713    -0.0003214109287561456    5.339337078068792    9.924458948462766e-05    0.002243030566486766    -0.00023371329492623453
    12    0    8.008281107750491    2.669633835196573    8.008311006441538    0.00012469851269441556    -0.0005666711793370966    -0.001691528896941361
    13    0    -0.0003651911549322319    5.338854427770459    5.33897936158662    0.0006923981333733219    -0.000953879344528416    0.0007762161027308053
    14    0    2.669443764946345    8.008649502336608    8.00908303335679    -0.0012117610109871764    -0.0005787553651033597    0.0014866119595857955
    15    0    5.339531419560597    5.33904022677911    5.339180109940793    -0.000859519851417384    -0.0022054924575107145    0.000557929427931715
    16    0    8.009069151821661    8.008488262967033    8.008999744146017    0.0010178998180560644    0.0005646142966534776    0.0014714424497941038
 Energy
    -15.201030855638237
 PlusStress:  xx          yy          zz          yz          xz          xy
     -0.8451260676565778    -0.8451260676565778    -0.8451260676565778    -0.0    0.0    0.0
 Feature EFS_by Qe
END_CFG

BEGIN_CFG
 Size
    16
 Supercell
    11.100999088272255    0.0    0.0
    0.0    11.100999088272255    0.0
    0.0    0.0    11.100999088272255
 AtomData:  id type    cartes_x    cartes_y    cartes_z    fx    fy    fz
    1    0    0.00024533207985081684    2.4422197994198962e-05    0.00017095538595939276    -0.00025248234941425995    -0.0023391898319459646    -0.00020568826836192257
    2    0    2.774823493703074    2.775560600042535    2.7749500450926803    0.0006605164517772239    -0.0003697246623805558    0.0014961250419975342
    3    0    5.550081036470499    -0.0001964876838624189    -2.3312098085371734e-05    0.00012084185766262952    -0.0008186393080804519    0.00031007506455559827
    4    0    8.32557059011887    2.775437378952655    2.7750954681807363    -0.0003830943998240808    -0.0014069077555955505    0.001908015799392284
    5    0    0.00025865327875674356    5.550401855344151    -7.8817093526733e-05    0.0008638907271200748    0.0025027120052936933    -0.0011785937777138164
    6    0    2.7750721560826515    8.326040162380304    2.7753974153559375    -0.000608323053680386    0.00011929919564991508    -0.001565287722234231
    7    0    5.550906950802666    5.550565040030747    -0.0003574521706423666    -0.0009592786615729165    0.0010274129004678033    -0.0004332309152372994
    8    0    8.325404075132546    8.325892519092429    2.77542405775375    0.0008998861740834112    0.0012053332526008663    -0.0014470169679261255
    9    0    0.0002131391824948273    1.5541398723581156e-05    5.550385203845519    -0.0004933947337331619    0.0009037428291151973    9.435949311103198e-05
    10    0    2.7750266419863894    2.7749478248928625    8.325284184342392    0.0001370398087961309    0.0005885255578505509    -0.0013518861438087362
    11    0    5.550918051801755    -0.00032081887365106816    5.550783729712786    0.00017766324179761063    0.002056625573283773    -0.0002905346790612157
    12    0    8.325452919528534    2.7753585618591288    8.325481782126163    0.00014629578087241744    -0.00043297380490184707    -0.0016434492642117614
    13    0    -0.0003652228700041572    5.550301946352356    5.550427387642054    0.0005676996206789062    -0.0008898588710007677    0.0009209692215905084
    14    0    2.7751676246748107    8.325821472698264    8.326254411662708    -0.0012726961604893959    -0.0005494447868617858    0.0015053810140738207